# vtk DataFile Version 4.0
vtk output
ASCII
DATASET UNSTRUCTURED_GRID
POINTS 101 float
0.0000000e+00 0.0000000e+00 0.0000000e+00 
0.0000000e+00 2.5000000e-01 0.0000000e+00 
2.5000000e-01 0.0000000e+00 0.0000000e+00 
2.5000000e-01 2.5000000e-01 0.0000000e+00 
0.0000000e+00 5.0000000e-01 0.0000000e+00 
5.0000000e-01 0.0000000e+00 0.0000000e+00 
3.5416666e-01 5.0558227e-01 0.0000000e+00 
6.0416669e-01 2.5558227e-01 0.0000000e+00 
0.0000000e+00 7.5000000e-01 0.0000000e+00 
7.5000000e-01 0.0000000e+00 0.0000000e+00 
2.5000000e-01 7.5000000e-01 0.0000000e+00 
7.0833331e-01 5.1116455e-01 0.0000000e+00 
8.5416669e-01 2.5558227e-01 0.0000000e+00 
6.0416669e-01 7.5558227e-01 0.0000000e+00 
0.0000000e+00 1.0000000e+00 0.0000000e+00 
1.0000000e+00 0.0000000e+00 0.0000000e+00 
2.5000000e-01 1.0000000e+00 0.0000000e+00 
9.7916669e-01 5.3907591e-01 0.0000000e+00 
5.0000000e-01 1.0000000e+00 0.0000000e+00 
8.5416669e-01 7.5558227e-01 0.0000000e+00 
1.1250000e+00 2.8349364e-01 0.0000000e+00 
7.5000000e-01 1.0000000e+00 0.0000000e+00 
1.2500000e+00 0.0000000e+00 0.0000000e+00 
1.1250000e+00 7.8349364e-01 0.0000000e+00 
1.2500000e+00 5.6698728e-01 0.0000000e+00 
1.3750000e+00 2.8349364e-01 0.0000000e+00 
1.0000000e+00 1.0000000e+00 0.0000000e+00 
1.5000000e+00 0.0000000e+00 0.0000000e+00 
1.3750000e+00 7.8349364e-01 0.0000000e+00 
1.2500000e+00 1.0000000e+00 0.0000000e+00 
1.5000000e+00 5.6698728e-01 0.0000000e+00 
1.6250000e+00 2.8349364e-01 0.0000000e+00 
1.7500000e+00 0.0000000e+00 0.0000000e+00 
1.5000000e+00 1.0000000e+00 0.0000000e+00 
1.6250000e+00 7.8349364e-01 0.0000000e+00 
1.7500000e+00 5.6698728e-01 0.0000000e+00 
1.8750000e+00 2.8349364e-01 0.0000000e+00 
2.0000000e+00 0.0000000e+00 0.0000000e+00 
1.7500000e+00 1.0000000e+00 0.0000000e+00 
1.8750000e+00 7.8349364e-01 0.0000000e+00 
2.0000000e+00 5.6698728e-01 0.0000000e+00 
2.1250000e+00 2.8349364e-01 0.0000000e+00 
2.0000000e+00 1.0000000e+00 0.0000000e+00 
2.2500000e+00 0.0000000e+00 0.0000000e+00 
2.1250000e+00 7.8349364e-01 0.0000000e+00 
2.2500000e+00 5.6698728e-01 0.0000000e+00 
2.3750000e+00 2.8349364e-01 0.0000000e+00 
2.2500000e+00 1.0000000e+00 0.0000000e+00 
2.5000000e+00 0.0000000e+00 0.0000000e+00 
2.3750000e+00 7.8349364e-01 0.0000000e+00 
2.5000000e+00 5.6698728e-01 0.0000000e+00 
2.6250000e+00 2.8349364e-01 0.0000000e+00 
2.5000000e+00 1.0000000e+00 0.0000000e+00 
2.6250000e+00 7.8349364e-01 0.0000000e+00 
2.7500000e+00 0.0000000e+00 0.0000000e+00 
2.7500000e+00 5.6698728e-01 0.0000000e+00 
2.8750000e+00 2.8349364e-01 0.0000000e+00 
2.7500000e+00 1.0000000e+00 0.0000000e+00 
2.8750000e+00 7.8349364e-01 0.0000000e+00 
3.0000000e+00 0.0000000e+00 0.0000000e+00 
3.0000000e+00 5.0000000e-01 0.0000000e+00 
3.1250000e+00 2.1650635e-01 0.0000000e+00 
3.0000000e+00 1.0000000e+00 0.0000000e+00 
3.1250000e+00 7.1650636e-01 0.0000000e+00 
3.2500000e+00 0.0000000e+00 0.0000000e+00 
3.2500000e+00 4.3301269e-01 0.0000000e+00 
3.3750000e+00 2.1650635e-01 0.0000000e+00 
3.2500000e+00 1.0000000e+00 0.0000000e+00 
3.3750000e+00 7.1650636e-01 0.0000000e+00 
3.5000000e+00 0.0000000e+00 0.0000000e+00 
3.5000000e+00 4.3301269e-01 0.0000000e+00 
3.6250000e+00 2.1650635e-01 0.0000000e+00 
3.5000000e+00 1.0000000e+00 0.0000000e+00 
3.6250000e+00 7.1650636e-01 0.0000000e+00 
3.7500000e+00 0.0000000e+00 0.0000000e+00 
3.7500000e+00 4.3301269e-01 0.0000000e+00 
3.8750000e+00 2.1650635e-01 0.0000000e+00 
3.7500000e+00 1.0000000e+00 0.0000000e+00 
3.8750000e+00 7.1650636e-01 0.0000000e+00 
4.0000000e+00 0.0000000e+00 0.0000000e+00 
4.0208335e+00 4.6092409e-01 0.0000000e+00 
4.0000000e+00 1.0000000e+00 0.0000000e+00 
4.1458335e+00 2.4441773e-01 0.0000000e+00 
4.1458335e+00 7.4441773e-01 0.0000000e+00 
4.2500000e+00 0.0000000e+00 0.0000000e+00 
4.2916665e+00 4.8883545e-01 0.0000000e+00 
4.2500000e+00 1.0000000e+00 0.0000000e+00 
4.3958335e+00 2.4441773e-01 0.0000000e+00 
4.3958335e+00 7.4441773e-01 0.0000000e+00 
4.5000000e+00 0.0000000e+00 0.0000000e+00 
4.5000000e+00 1.0000000e+00 0.0000000e+00 
4.6458335e+00 4.9441773e-01 0.0000000e+00 
4.7500000e+00 0.0000000e+00 0.0000000e+00 
4.7500000e+00 2.5000000e-01 0.0000000e+00 
4.7500000e+00 7.5000000e-01 0.0000000e+00 
4.7500000e+00 1.0000000e+00 0.0000000e+00 
5.0000000e+00 0.0000000e+00 0.0000000e+00 
5.0000000e+00 2.5000000e-01 0.0000000e+00 
5.0000000e+00 5.0000000e-01 0.0000000e+00 
5.0000000e+00 7.5000000e-01 0.0000000e+00 
5.0000000e+00 1.0000000e+00 0.0000000e+00 

CELLS 38 266
6 0 5 4 2 3 1
6 79 89 85 84 87 82
6 62 52 55 57 53 58
6 85 89 98 87 93 91
6 79 85 75 82 80 76
6 55 52 45 53 49 50
6 75 85 81 80 83 78
6 79 75 69 76 71 74
6 45 52 42 49 47 44
6 55 45 48 50 46 51
6 69 75 65 71 70 66
6 65 75 72 70 73 68
6 69 65 59 66 61 64
6 59 65 55 61 60 56
6 37 48 45 43 46 41
6 100 90 98 95 94 99
6 26 18 11 21 13 19
6 11 18 4 13 10 6
6 26 11 24 19 17 23
6 24 11 15 17 12 20
6 26 24 33 23 28 29
6 33 24 35 28 30 34
6 35 24 27 30 25 31
6 33 35 42 34 39 38
6 42 35 45 39 40 44
6 45 35 37 40 36 41
6 15 27 24 22 25 20
6 96 98 89 97 93 92
6 81 72 75 77 73 78
6 14 4 18 8 10 16
6 5 15 11 9 12 7
6 48 59 55 54 56 51
6 90 81 85 86 83 88
6 27 37 35 32 36 31
6 72 62 65 67 63 68
6 62 55 65 58 60 63
6 90 85 98 88 91 94
6 5 11 4 7 6 3

CELL_TYPES 38
22
22
22
22
22
22
22
22
22
22
22
22
22
22
22
22
22
22
22
22
22
22
22
22
22
22
22
22
22
22
22
22
22
22
22
22
22
22
POINT_DATA 101
FIELD FieldData 2
DISPLACEMENT 3 101  float
0.0000000e+00 0.0000000e+00 0.0000000e+00 
0.0000000e+00 0.0000000e+00 0.0000000e+00 
0.0000000e+00 0.0000000e+00 0.0000000e+00 
-1.3848354e-05 2.3770697e-06 0.0000000e+00 
0.0000000e+00 0.0000000e+00 0.0000000e+00 
0.0000000e+00 0.0000000e+00 0.0000000e+00 
-1.8160876e-05 1.2919971e-05 0.0000000e+00 
-5.0732502e-05 -4.2299034e-06 0.0000000e+00 
0.0000000e+00 0.0000000e+00 0.0000000e+00 
0.0000000e+00 0.0000000e+00 0.0000000e+00 
1.9056274e-06 1.4807575e-05 0.0000000e+00 
-5.3881853e-05 -2.2968195e-06 0.0000000e+00 
-9.7274336e-05 -3.4335437e-05 0.0000000e+00 
7.1924346e-06 1.7194730e-05 0.0000000e+00 
0.0000000e+00 0.0000000e+00 0.0000000e+00 
0.0000000e+00 0.0000000e+00 0.0000000e+00 
8.4450412e-06 1.2020212e-05 0.0000000e+00 
-1.1183937e-04 -7.9009704e-05 0.0000000e+00 
3.0520059e-05 1.8622173e-05 0.0000000e+00 
1.3486685e-05 -2.2093735e-05 0.0000000e+00 
-1.7283436e-04 -1.2801074e-04 0.0000000e+00 
9.2809911e-05 -6.9832104e-06 0.0000000e+00 
0.0000000e+00 0.0000000e+00 0.0000000e+00 
3.6818659e-05 -1.6884044e-04 0.0000000e+00 
-2.0063920e-04 -3.1794087e-04 0.0000000e+00 
-2.3149510e-04 -2.9517018e-04 0.0000000e+00 
1.8736723e-04 -8.9912181e-05 0.0000000e+00 
0.0000000e+00 0.0000000e+00 0.0000000e+00 
1.4435254e-05 -5.1665661e-04 0.0000000e+00 
3.9105202e-04 -3.2723579e-04 0.0000000e+00 
-2.7141193e-04 -7.8032888e-04 0.0000000e+00 
-2.2410422e-04 -5.3177442e-04 0.0000000e+00 
0.0000000e+00 0.0000000e+00 0.0000000e+00 
6.6764222e-04 -7.9129770e-04 0.0000000e+00 
-1.5837273e-04 -1.4698940e-03 0.0000000e+00 
-2.0602207e-04 -1.4196854e-03 0.0000000e+00 
-9.2561342e-05 -7.1116281e-04 0.0000000e+00 
0.0000000e+00 0.0000000e+00 0.0000000e+00 
5.5690180e-04 -2.7710930e-03 0.0000000e+00 
-1.7285047e-04 -2.7725331e-03 0.0000000e+00 
3.9676030e-05 -1.6940793e-03 0.0000000e+00 
8.8476212e-05 -6.8604224e-04 0.0000000e+00 
-1.3325950e-04 -4.8014489e-03 0.0000000e+00 
0.0000000e+00 0.0000000e+00 0.0000000e+00 
2.6576174e-04 -2.4316125e-03 0.0000000e+00 
1.8827790e-04 -1.2202952e-03 0.0000000e+00 
1.4849054e-04 -5.2120863e-04 0.0000000e+00 
-5.1084696e-04 -1.7838848e-03 0.0000000e+00 
0.0000000e+00 0.0000000e+00 0.0000000e+00 
7.7965138e-05 -1.1616247e-03 0.0000000e+00 
1.3391156e-04 -8.1016513e-04 0.0000000e+00 
1.2933754e-04 -3.9048769e-04 0.0000000e+00 
-3.0059650e-04 -9.1425644e-04 0.0000000e+00 
-7.0435482e-05 -8.6964027e-04 0.0000000e+00 
0.0000000e+00 0.0000000e+00 0.0000000e+00 
8.4305691e-05 -6.8910373e-04 0.0000000e+00 
1.2124628e-04 -3.1903264e-04 0.0000000e+00 
-1.3136800e-04 -1.1553316e-03 0.0000000e+00 
-8.8920555e-05 -1.0280820e-03 0.0000000e+00 
0.0000000e+00 0.0000000e+00 0.0000000e+00 
1.2851231e-04 -5.2831956e-04 0.0000000e+00 
1.1296067e-04 -1.8293229e-04 0.0000000e+00 
-2.1003092e-04 -1.6191255e-03 0.0000000e+00 
9.5121140e-05 -7.1343291e-04 0.0000000e+00 
0.0000000e+00 0.0000000e+00 0.0000000e+00 
1.3706063e-04 -2.8103133e-04 0.0000000e+00 
1.0191898e-04 -1.0860937e-04 0.0000000e+00 
-2.6102830e-04 -5.7428493e-04 0.0000000e+00 
6.0659317e-05 -3.0611042e-04 0.0000000e+00 
0.0000000e+00 0.0000000e+00 0.0000000e+00 
1.1451559e-04 -1.3997353e-04 0.0000000e+00 
7.7305951e-05 -5.3962463e-05 0.0000000e+00 
-1.9835688e-04 -1.9382944e-04 0.0000000e+00 
2.5882115e-05 -1.0488898e-04 0.0000000e+00 
0.0000000e+00 0.0000000e+00 0.0000000e+00 
7.9300167e-05 -5.5427990e-05 0.0000000e+00 
5.0800645e-05 -2.1514374e-05 0.0000000e+00 
-1.1212422e-04 -6.1521605e-05 0.0000000e+00 
1.1539410e-05 -2.1830609e-05 0.0000000e+00 
0.0000000e+00 0.0000000e+00 0.0000000e+00 
4.1040868e-05 -7.5277644e-06 0.0000000e+00 
-4.7490867e-05 -3.2030100e-06 0.0000000e+00 
2.8710139e-05 -3.9188917e-06 0.0000000e+00 
2.1699859e-06 7.9619849e-06 0.0000000e+00 
0.0000000e+00 0.0000000e+00 0.0000000e+00 
1.7656053e-05 5.8842838e-06 0.0000000e+00 
-1.8644678e-05 9.8171113e-06 0.0000000e+00 
1.4165387e-05 1.3378950e-06 0.0000000e+00 
1.9535719e-06 1.1658120e-05 0.0000000e+00 
0.0000000e+00 0.0000000e+00 0.0000000e+00 
-2.0038767e-06 1.0984167e-05 0.0000000e+00 
5.6767667e-06 5.3805798e-06 0.0000000e+00 
0.0000000e+00 0.0000000e+00 0.0000000e+00 
3.7006780e-06 1.2644549e-06 0.0000000e+00 
9.6529971e-07 5.4964089e-06 0.0000000e+00 
1.0800180e-06 5.2869859e-06 0.0000000e+00 
0.0000000e+00 0.0000000e+00 0.0000000e+00 
0.0000000e+00 0.0000000e+00 0.0000000e+00 
0.0000000e+00 0.0000000e+00 0.0000000e+00 
0.0000000e+00 0.0000000e+00 0.0000000e+00 
0.0000000e+00 0.0000000e+00 0.0000000e+00 
TOTAL_DISPLACEMENT 3 101  float
0.0000000e+00 0.0000000e+00 0.0000000e+00 
0.0000000e+00 0.0000000e+00 0.0000000e+00 
0.0000000e+00 0.0000000e+00 0.0000000e+00 
-1.3848354e-05 2.3770697e-06 0.0000000e+00 
0.0000000e+00 0.0000000e+00 0.0000000e+00 
0.0000000e+00 0.0000000e+00 0.0000000e+00 
-1.8160876e-05 1.2919971e-05 0.0000000e+00 
-5.0732502e-05 -4.2299034e-06 0.0000000e+00 
0.0000000e+00 0.0000000e+00 0.0000000e+00 
0.0000000e+00 0.0000000e+00 0.0000000e+00 
1.9056274e-06 1.4807575e-05 0.0000000e+00 
-5.3881853e-05 -2.2968195e-06 0.0000000e+00 
-9.7274336e-05 -3.4335437e-05 0.0000000e+00 
7.1924346e-06 1.7194730e-05 0.0000000e+00 
0.0000000e+00 0.0000000e+00 0.0000000e+00 
0.0000000e+00 0.0000000e+00 0.0000000e+00 
8.4450412e-06 1.2020212e-05 0.0000000e+00 
-1.1183937e-04 -7.9009704e-05 0.0000000e+00 
3.0520059e-05 1.8622173e-05 0.0000000e+00 
1.3486685e-05 -2.2093735e-05 0.0000000e+00 
-1.7283436e-04 -1.2801074e-04 0.0000000e+00 
9.2809911e-05 -6.9832104e-06 0.0000000e+00 
0.0000000e+00 0.0000000e+00 0.0000000e+00 
3.6818659e-05 -1.6884044e-04 0.0000000e+00 
-2.0063920e-04 -3.1794087e-04 0.0000000e+00 
-2.3149510e-04 -2.9517018e-04 0.0000000e+00 
1.8736723e-04 -8.9912181e-05 0.0000000e+00 
0.0000000e+00 0.0000000e+00 0.0000000e+00 
1.4435254e-05 -5.1665661e-04 0.0000000e+00 
3.9105202e-04 -3.2723579e-04 0.0000000e+00 
-2.7141193e-04 -7.8032888e-04 0.0000000e+00 
-2.2410422e-04 -5.3177442e-04 0.0000000e+00 
0.0000000e+00 0.0000000e+00 0.0000000e+00 
6.6764222e-04 -7.9129770e-04 0.0000000e+00 
-1.5837273e-04 -1.4698940e-03 0.0000000e+00 
-2.0602207e-04 -1.4196854e-03 0.0000000e+00 
-9.2561342e-05 -7.1116281e-04 0.0000000e+00 
0.0000000e+00 0.0000000e+00 0.0000000e+00 
5.5690180e-04 -2.7710930e-03 0.0000000e+00 
-1.7285047e-04 -2.7725331e-03 0.0000000e+00 
3.9676030e-05 -1.6940793e-03 0.0000000e+00 
8.8476212e-05 -6.8604224e-04 0.0000000e+00 
-1.3325950e-04 -4.8014489e-03 0.0000000e+00 
0.0000000e+00 0.0000000e+00 0.0000000e+00 
2.6576174e-04 -2.4316125e-03 0.0000000e+00 
1.8827790e-04 -1.2202952e-03 0.0000000e+00 
1.4849054e-04 -5.2120863e-04 0.0000000e+00 
-5.1084696e-04 -1.7838848e-03 0.0000000e+00 
0.0000000e+00 0.0000000e+00 0.0000000e+00 
7.7965138e-05 -1.1616247e-03 0.0000000e+00 
1.3391156e-04 -8.1016513e-04 0.0000000e+00 
1.2933754e-04 -3.9048769e-04 0.0000000e+00 
-3.0059650e-04 -9.1425644e-04 0.0000000e+00 
-7.0435482e-05 -8.6964027e-04 0.0000000e+00 
0.0000000e+00 0.0000000e+00 0.0000000e+00 
8.4305691e-05 -6.8910373e-04 0.0000000e+00 
1.2124628e-04 -3.1903264e-04 0.0000000e+00 
-1.3136800e-04 -1.1553316e-03 0.0000000e+00 
-8.8920555e-05 -1.0280820e-03 0.0000000e+00 
0.0000000e+00 0.0000000e+00 0.0000000e+00 
1.2851231e-04 -5.2831956e-04 0.0000000e+00 
1.1296067e-04 -1.8293229e-04 0.0000000e+00 
-2.1003092e-04 -1.6191255e-03 0.0000000e+00 
9.5121140e-05 -7.1343291e-04 0.0000000e+00 
0.0000000e+00 0.0000000e+00 0.0000000e+00 
1.3706063e-04 -2.8103133e-04 0.0000000e+00 
1.0191898e-04 -1.0860937e-04 0.0000000e+00 
-2.6102830e-04 -5.7428493e-04 0.0000000e+00 
6.0659317e-05 -3.0611042e-04 0.0000000e+00 
0.0000000e+00 0.0000000e+00 0.0000000e+00 
1.1451559e-04 -1.3997353e-04 0.0000000e+00 
7.7305951e-05 -5.3962463e-05 0.0000000e+00 
-1.9835688e-04 -1.9382944e-04 0.0000000e+00 
2.5882115e-05 -1.0488898e-04 0.0000000e+00 
0.0000000e+00 0.0000000e+00 0.0000000e+00 
7.9300167e-05 -5.5427990e-05 0.0000000e+00 
5.0800645e-05 -2.1514374e-05 0.0000000e+00 
-1.1212422e-04 -6.1521605e-05 0.0000000e+00 
1.1539410e-05 -2.1830609e-05 0.0000000e+00 
0.0000000e+00 0.0000000e+00 0.0000000e+00 
4.1040868e-05 -7.5277644e-06 0.0000000e+00 
-4.7490867e-05 -3.2030100e-06 0.0000000e+00 
2.8710139e-05 -3.9188917e-06 0.0000000e+00 
2.1699859e-06 7.9619849e-06 0.0000000e+00 
0.0000000e+00 0.0000000e+00 0.0000000e+00 
1.7656053e-05 5.8842838e-06 0.0000000e+00 
-1.8644678e-05 9.8171113e-06 0.0000000e+00 
1.4165387e-05 1.3378950e-06 0.0000000e+00 
1.9535719e-06 1.1658120e-05 0.0000000e+00 
0.0000000e+00 0.0000000e+00 0.0000000e+00 
-2.0038767e-06 1.0984167e-05 0.0000000e+00 
5.6767667e-06 5.3805798e-06 0.0000000e+00 
0.0000000e+00 0.0000000e+00 0.0000000e+00 
3.7006780e-06 1.2644549e-06 0.0000000e+00 
9.6529971e-07 5.4964089e-06 0.0000000e+00 
1.0800180e-06 5.2869859e-06 0.0000000e+00 
0.0000000e+00 0.0000000e+00 0.0000000e+00 
0.0000000e+00 0.0000000e+00 0.0000000e+00 
0.0000000e+00 0.0000000e+00 0.0000000e+00 
0.0000000e+00 0.0000000e+00 0.0000000e+00 
0.0000000e+00 0.0000000e+00 0.0000000e+00 
CELL_DATA 38
FIELD FieldData 0
