# vtk DataFile Version 4.0
vtk output
ASCII
DATASET UNSTRUCTURED_GRID
POINTS 101 float
0.0000000e+00 0.0000000e+00 0.0000000e+00 
0.0000000e+00 2.5000000e-01 0.0000000e+00 
2.5000000e-01 0.0000000e+00 0.0000000e+00 
2.5000000e-01 2.5000000e-01 0.0000000e+00 
0.0000000e+00 5.0000000e-01 0.0000000e+00 
5.0000000e-01 0.0000000e+00 0.0000000e+00 
3.5416666e-01 5.0558227e-01 0.0000000e+00 
6.0416669e-01 2.5558227e-01 0.0000000e+00 
0.0000000e+00 7.5000000e-01 0.0000000e+00 
7.5000000e-01 0.0000000e+00 0.0000000e+00 
2.5000000e-01 7.5000000e-01 0.0000000e+00 
7.0833331e-01 5.1116455e-01 0.0000000e+00 
8.5416669e-01 2.5558227e-01 0.0000000e+00 
6.0416669e-01 7.5558227e-01 0.0000000e+00 
0.0000000e+00 1.0000000e+00 0.0000000e+00 
1.0000000e+00 0.0000000e+00 0.0000000e+00 
2.5000000e-01 1.0000000e+00 0.0000000e+00 
9.7916669e-01 5.3907591e-01 0.0000000e+00 
5.0000000e-01 1.0000000e+00 0.0000000e+00 
8.5416669e-01 7.5558227e-01 0.0000000e+00 
1.1250000e+00 2.8349364e-01 0.0000000e+00 
7.5000000e-01 1.0000000e+00 0.0000000e+00 
1.2500000e+00 0.0000000e+00 0.0000000e+00 
1.1250000e+00 7.8349364e-01 0.0000000e+00 
1.2500000e+00 5.6698728e-01 0.0000000e+00 
1.3750000e+00 2.8349364e-01 0.0000000e+00 
1.0000000e+00 1.0000000e+00 0.0000000e+00 
1.5000000e+00 0.0000000e+00 0.0000000e+00 
1.3750000e+00 7.8349364e-01 0.0000000e+00 
1.2500000e+00 1.0000000e+00 0.0000000e+00 
1.5000000e+00 5.6698728e-01 0.0000000e+00 
1.6250000e+00 2.8349364e-01 0.0000000e+00 
1.7500000e+00 0.0000000e+00 0.0000000e+00 
1.5000000e+00 1.0000000e+00 0.0000000e+00 
1.6250000e+00 7.8349364e-01 0.0000000e+00 
1.7500000e+00 5.6698728e-01 0.0000000e+00 
1.8750000e+00 2.8349364e-01 0.0000000e+00 
2.0000000e+00 0.0000000e+00 0.0000000e+00 
1.7500000e+00 1.0000000e+00 0.0000000e+00 
1.8750000e+00 7.8349364e-01 0.0000000e+00 
2.0000000e+00 5.6698728e-01 0.0000000e+00 
2.1250000e+00 2.8349364e-01 0.0000000e+00 
2.0000000e+00 1.0000000e+00 0.0000000e+00 
2.2500000e+00 0.0000000e+00 0.0000000e+00 
2.1250000e+00 7.8349364e-01 0.0000000e+00 
2.2500000e+00 5.6698728e-01 0.0000000e+00 
2.3750000e+00 2.8349364e-01 0.0000000e+00 
2.2500000e+00 1.0000000e+00 0.0000000e+00 
2.5000000e+00 0.0000000e+00 0.0000000e+00 
2.3750000e+00 7.8349364e-01 0.0000000e+00 
2.5000000e+00 5.6698728e-01 0.0000000e+00 
2.6250000e+00 2.8349364e-01 0.0000000e+00 
2.5000000e+00 1.0000000e+00 0.0000000e+00 
2.6250000e+00 7.8349364e-01 0.0000000e+00 
2.7500000e+00 0.0000000e+00 0.0000000e+00 
2.7500000e+00 5.6698728e-01 0.0000000e+00 
2.8750000e+00 2.8349364e-01 0.0000000e+00 
2.7500000e+00 1.0000000e+00 0.0000000e+00 
2.8750000e+00 7.8349364e-01 0.0000000e+00 
3.0000000e+00 0.0000000e+00 0.0000000e+00 
3.0000000e+00 5.0000000e-01 0.0000000e+00 
3.1250000e+00 2.1650635e-01 0.0000000e+00 
3.0000000e+00 1.0000000e+00 0.0000000e+00 
3.1250000e+00 7.1650636e-01 0.0000000e+00 
3.2500000e+00 0.0000000e+00 0.0000000e+00 
3.2500000e+00 4.3301269e-01 0.0000000e+00 
3.3750000e+00 2.1650635e-01 0.0000000e+00 
3.2500000e+00 1.0000000e+00 0.0000000e+00 
3.3750000e+00 7.1650636e-01 0.0000000e+00 
3.5000000e+00 0.0000000e+00 0.0000000e+00 
3.5000000e+00 4.3301269e-01 0.0000000e+00 
3.6250000e+00 2.1650635e-01 0.0000000e+00 
3.5000000e+00 1.0000000e+00 0.0000000e+00 
3.6250000e+00 7.1650636e-01 0.0000000e+00 
3.7500000e+00 0.0000000e+00 0.0000000e+00 
3.7500000e+00 4.3301269e-01 0.0000000e+00 
3.8750000e+00 2.1650635e-01 0.0000000e+00 
3.7500000e+00 1.0000000e+00 0.0000000e+00 
3.8750000e+00 7.1650636e-01 0.0000000e+00 
4.0000000e+00 0.0000000e+00 0.0000000e+00 
4.0208335e+00 4.6092409e-01 0.0000000e+00 
4.0000000e+00 1.0000000e+00 0.0000000e+00 
4.1458335e+00 2.4441773e-01 0.0000000e+00 
4.1458335e+00 7.4441773e-01 0.0000000e+00 
4.2500000e+00 0.0000000e+00 0.0000000e+00 
4.2916665e+00 4.8883545e-01 0.0000000e+00 
4.2500000e+00 1.0000000e+00 0.0000000e+00 
4.3958335e+00 2.4441773e-01 0.0000000e+00 
4.3958335e+00 7.4441773e-01 0.0000000e+00 
4.5000000e+00 0.0000000e+00 0.0000000e+00 
4.5000000e+00 1.0000000e+00 0.0000000e+00 
4.6458335e+00 4.9441773e-01 0.0000000e+00 
4.7500000e+00 0.0000000e+00 0.0000000e+00 
4.7500000e+00 2.5000000e-01 0.0000000e+00 
4.7500000e+00 7.5000000e-01 0.0000000e+00 
4.7500000e+00 1.0000000e+00 0.0000000e+00 
5.0000000e+00 0.0000000e+00 0.0000000e+00 
5.0000000e+00 2.5000000e-01 0.0000000e+00 
5.0000000e+00 5.0000000e-01 0.0000000e+00 
5.0000000e+00 7.5000000e-01 0.0000000e+00 
5.0000000e+00 1.0000000e+00 0.0000000e+00 

CELLS 38 266
6 0 5 4 2 3 1
6 79 89 85 84 87 82
6 62 52 55 57 53 58
6 85 89 98 87 93 91
6 79 85 75 82 80 76
6 55 52 45 53 49 50
6 75 85 81 80 83 78
6 79 75 69 76 71 74
6 45 52 42 49 47 44
6 55 45 48 50 46 51
6 69 75 65 71 70 66
6 65 75 72 70 73 68
6 69 65 59 66 61 64
6 59 65 55 61 60 56
6 37 48 45 43 46 41
6 100 90 98 95 94 99
6 26 18 11 21 13 19
6 11 18 4 13 10 6
6 26 11 24 19 17 23
6 24 11 15 17 12 20
6 26 24 33 23 28 29
6 33 24 35 28 30 34
6 35 24 27 30 25 31
6 33 35 42 34 39 38
6 42 35 45 39 40 44
6 45 35 37 40 36 41
6 15 27 24 22 25 20
6 96 98 89 97 93 92
6 81 72 75 77 73 78
6 14 4 18 8 10 16
6 5 15 11 9 12 7
6 48 59 55 54 56 51
6 90 81 85 86 83 88
6 27 37 35 32 36 31
6 72 62 65 67 63 68
6 62 55 65 58 60 63
6 90 85 98 88 91 94
6 5 11 4 7 6 3

CELL_TYPES 38
22
22
22
22
22
22
22
22
22
22
22
22
22
22
22
22
22
22
22
22
22
22
22
22
22
22
22
22
22
22
22
22
22
22
22
22
22
22
POINT_DATA 101
FIELD FieldData 2
DISPLACEMENT 3 101  float
0.0000000e+00 0.0000000e+00 0.0000000e+00 
0.0000000e+00 0.0000000e+00 0.0000000e+00 
0.0000000e+00 0.0000000e+00 0.0000000e+00 
-1.1859842e-04 -1.4475566e-04 0.0000000e+00 
0.0000000e+00 0.0000000e+00 0.0000000e+00 
0.0000000e+00 0.0000000e+00 0.0000000e+00 
-2.0469895e-04 -3.8036067e-04 0.0000000e+00 
-1.8754126e-04 -4.4374916e-04 0.0000000e+00 
0.0000000e+00 0.0000000e+00 0.0000000e+00 
0.0000000e+00 0.0000000e+00 0.0000000e+00 
4.9901037e-06 -1.9876851e-04 0.0000000e+00 
-2.1457678e-04 -1.1278210e-03 0.0000000e+00 
-9.1871327e-05 -6.1138894e-04 0.0000000e+00 
-1.7160292e-04 -1.2532574e-03 0.0000000e+00 
0.0000000e+00 0.0000000e+00 0.0000000e+00 
0.0000000e+00 0.0000000e+00 0.0000000e+00 
3.3126795e-04 -2.3342256e-04 0.0000000e+00 
1.4407573e-05 -1.5664484e-03 0.0000000e+00 
6.4080587e-04 -7.6825917e-04 0.0000000e+00 
-1.7865348e-04 -2.5121348e-03 0.0000000e+00 
9.1507995e-05 -6.7152170e-04 0.0000000e+00 
5.5024528e-04 -2.7110255e-03 0.0000000e+00 
0.0000000e+00 0.0000000e+00 0.0000000e+00 
2.8042294e-04 -2.4191472e-03 0.0000000e+00 
1.9151199e-04 -1.2069222e-03 0.0000000e+00 
1.4936467e-04 -5.1605370e-04 0.0000000e+00 
-8.5031003e-05 -4.7326158e-03 0.0000000e+00 
0.0000000e+00 0.0000000e+00 0.0000000e+00 
9.1809983e-05 -1.1566257e-03 0.0000000e+00 
-4.8076626e-04 -1.7749101e-03 0.0000000e+00 
1.3961032e-04 -8.0723519e-04 0.0000000e+00 
1.3030317e-04 -3.8916492e-04 0.0000000e+00 
0.0000000e+00 0.0000000e+00 0.0000000e+00 
-2.8222706e-04 -9.1203774e-04 0.0000000e+00 
-5.9499962e-05 -8.6934475e-04 0.0000000e+00 
9.1314039e-05 -6.8838149e-04 0.0000000e+00 
1.2156859e-04 -3.2001172e-04 0.0000000e+00 
0.0000000e+00 0.0000000e+00 0.0000000e+00 
-1.1608162e-04 -1.1575877e-03 0.0000000e+00 
-8.0708196e-05 -1.0333724e-03 0.0000000e+00 
1.1110936e-04 -6.1085174e-04 0.0000000e+00 
1.3443206e-04 -2.3975510e-04 0.0000000e+00 
-1.9831117e-04 -1.6460646e-03 0.0000000e+00 
0.0000000e+00 0.0000000e+00 0.0000000e+00 
7.1254042e-05 -8.0350135e-04 0.0000000e+00 
1.2849281e-04 -3.6862481e-04 0.0000000e+00 
1.2218238e-04 -1.4198030e-04 0.0000000e+00 
-2.7352539e-04 -5.5476400e-04 0.0000000e+00 
0.0000000e+00 0.0000000e+00 0.0000000e+00 
2.0850093e-05 -3.1091427e-04 0.0000000e+00 
9.7973003e-05 -1.6743880e-04 0.0000000e+00 
9.1378570e-05 -6.6226647e-05 0.0000000e+00 
-1.8822133e-04 -1.9755951e-04 0.0000000e+00 
-2.8430086e-06 -1.0571082e-04 0.0000000e+00 
0.0000000e+00 0.0000000e+00 0.0000000e+00 
6.2101564e-05 -5.6575882e-05 0.0000000e+00 
5.9932052e-05 -2.3780069e-05 0.0000000e+00 
-1.0067452e-04 -6.0520917e-05 0.0000000e+00 
-3.7738509e-06 -2.1311291e-05 0.0000000e+00 
0.0000000e+00 0.0000000e+00 0.0000000e+00 
4.2519696e-05 -9.7576603e-06 0.0000000e+00 
3.0950883e-05 -4.9290406e-06 0.0000000e+00 
-3.9043269e-05 -6.6200546e-06 0.0000000e+00 
7.8071289e-06 5.0205240e-06 0.0000000e+00 
0.0000000e+00 0.0000000e+00 0.0000000e+00 
2.5965224e-05 3.7301845e-06 0.0000000e+00 
1.6464488e-05 7.9410552e-07 0.0000000e+00 
-1.4726119e-05 8.4046123e-06 0.0000000e+00 
6.7478427e-06 1.1141150e-05 0.0000000e+00 
0.0000000e+00 0.0000000e+00 0.0000000e+00 
1.4233728e-05 6.0896450e-06 0.0000000e+00 
8.3362074e-06 1.8204775e-06 0.0000000e+00 
4.3069528e-07 1.0937002e-05 0.0000000e+00 
5.8082478e-06 9.3950202e-06 0.0000000e+00 
0.0000000e+00 0.0000000e+00 0.0000000e+00 
7.2463067e-06 5.0525300e-06 0.0000000e+00 
4.0255682e-06 1.5954496e-06 0.0000000e+00 
4.5439442e-06 8.2997149e-06 0.0000000e+00 
4.8376023e-06 6.2143495e-06 0.0000000e+00 
0.0000000e+00 0.0000000e+00 0.0000000e+00 
4.0341911e-06 3.0489020e-06 0.0000000e+00 
5.9400209e-06 5.2820255e-06 0.0000000e+00 
2.0619893e-06 9.8089356e-07 0.0000000e+00 
3.8130565e-06 3.3067558e-06 0.0000000e+00 
0.0000000e+00 0.0000000e+00 0.0000000e+00 
2.2397726e-06 1.5315710e-06 0.0000000e+00 
4.7968988e-06 2.9020396e-06 0.0000000e+00 
1.0394924e-06 4.3624587e-07 0.0000000e+00 
2.7067902e-06 1.5464761e-06 0.0000000e+00 
0.0000000e+00 0.0000000e+00 0.0000000e+00 
3.3021774e-06 1.4481784e-06 0.0000000e+00 
9.8044461e-07 2.7268769e-07 0.0000000e+00 
0.0000000e+00 0.0000000e+00 0.0000000e+00 
3.4103243e-07 -1.0644580e-08 0.0000000e+00 
1.1038618e-06 2.7694455e-07 0.0000000e+00 
1.6305885e-06 5.7938041e-07 0.0000000e+00 
0.0000000e+00 0.0000000e+00 0.0000000e+00 
0.0000000e+00 0.0000000e+00 0.0000000e+00 
0.0000000e+00 0.0000000e+00 0.0000000e+00 
0.0000000e+00 0.0000000e+00 0.0000000e+00 
0.0000000e+00 0.0000000e+00 0.0000000e+00 
TOTAL_DISPLACEMENT 3 101  float
0.0000000e+00 0.0000000e+00 0.0000000e+00 
0.0000000e+00 0.0000000e+00 0.0000000e+00 
0.0000000e+00 0.0000000e+00 0.0000000e+00 
-1.1859842e-04 -1.4475566e-04 0.0000000e+00 
0.0000000e+00 0.0000000e+00 0.0000000e+00 
0.0000000e+00 0.0000000e+00 0.0000000e+00 
-2.0469895e-04 -3.8036067e-04 0.0000000e+00 
-1.8754126e-04 -4.4374916e-04 0.0000000e+00 
0.0000000e+00 0.0000000e+00 0.0000000e+00 
0.0000000e+00 0.0000000e+00 0.0000000e+00 
4.9901037e-06 -1.9876851e-04 0.0000000e+00 
-2.1457678e-04 -1.1278210e-03 0.0000000e+00 
-9.1871327e-05 -6.1138894e-04 0.0000000e+00 
-1.7160292e-04 -1.2532574e-03 0.0000000e+00 
0.0000000e+00 0.0000000e+00 0.0000000e+00 
0.0000000e+00 0.0000000e+00 0.0000000e+00 
3.3126795e-04 -2.3342256e-04 0.0000000e+00 
1.4407573e-05 -1.5664484e-03 0.0000000e+00 
6.4080587e-04 -7.6825917e-04 0.0000000e+00 
-1.7865348e-04 -2.5121348e-03 0.0000000e+00 
9.1507995e-05 -6.7152170e-04 0.0000000e+00 
5.5024528e-04 -2.7110255e-03 0.0000000e+00 
0.0000000e+00 0.0000000e+00 0.0000000e+00 
2.8042294e-04 -2.4191472e-03 0.0000000e+00 
1.9151199e-04 -1.2069222e-03 0.0000000e+00 
1.4936467e-04 -5.1605370e-04 0.0000000e+00 
-8.5031003e-05 -4.7326158e-03 0.0000000e+00 
0.0000000e+00 0.0000000e+00 0.0000000e+00 
9.1809983e-05 -1.1566257e-03 0.0000000e+00 
-4.8076626e-04 -1.7749101e-03 0.0000000e+00 
1.3961032e-04 -8.0723519e-04 0.0000000e+00 
1.3030317e-04 -3.8916492e-04 0.0000000e+00 
0.0000000e+00 0.0000000e+00 0.0000000e+00 
-2.8222706e-04 -9.1203774e-04 0.0000000e+00 
-5.9499962e-05 -8.6934475e-04 0.0000000e+00 
9.1314039e-05 -6.8838149e-04 0.0000000e+00 
1.2156859e-04 -3.2001172e-04 0.0000000e+00 
0.0000000e+00 0.0000000e+00 0.0000000e+00 
-1.1608162e-04 -1.1575877e-03 0.0000000e+00 
-8.0708196e-05 -1.0333724e-03 0.0000000e+00 
1.1110936e-04 -6.1085174e-04 0.0000000e+00 
1.3443206e-04 -2.3975510e-04 0.0000000e+00 
-1.9831117e-04 -1.6460646e-03 0.0000000e+00 
0.0000000e+00 0.0000000e+00 0.0000000e+00 
7.1254042e-05 -8.0350135e-04 0.0000000e+00 
1.2849281e-04 -3.6862481e-04 0.0000000e+00 
1.2218238e-04 -1.4198030e-04 0.0000000e+00 
-2.7352539e-04 -5.5476400e-04 0.0000000e+00 
0.0000000e+00 0.0000000e+00 0.0000000e+00 
2.0850093e-05 -3.1091427e-04 0.0000000e+00 
9.7973003e-05 -1.6743880e-04 0.0000000e+00 
9.1378570e-05 -6.6226647e-05 0.0000000e+00 
-1.8822133e-04 -1.9755951e-04 0.0000000e+00 
-2.8430086e-06 -1.0571082e-04 0.0000000e+00 
0.0000000e+00 0.0000000e+00 0.0000000e+00 
6.2101564e-05 -5.6575882e-05 0.0000000e+00 
5.9932052e-05 -2.3780069e-05 0.0000000e+00 
-1.0067452e-04 -6.0520917e-05 0.0000000e+00 
-3.7738509e-06 -2.1311291e-05 0.0000000e+00 
0.0000000e+00 0.0000000e+00 0.0000000e+00 
4.2519696e-05 -9.7576603e-06 0.0000000e+00 
3.0950883e-05 -4.9290406e-06 0.0000000e+00 
-3.9043269e-05 -6.6200546e-06 0.0000000e+00 
7.8071289e-06 5.0205240e-06 0.0000000e+00 
0.0000000e+00 0.0000000e+00 0.0000000e+00 
2.5965224e-05 3.7301845e-06 0.0000000e+00 
1.6464488e-05 7.9410552e-07 0.0000000e+00 
-1.4726119e-05 8.4046123e-06 0.0000000e+00 
6.7478427e-06 1.1141150e-05 0.0000000e+00 
0.0000000e+00 0.0000000e+00 0.0000000e+00 
1.4233728e-05 6.0896450e-06 0.0000000e+00 
8.3362074e-06 1.8204775e-06 0.0000000e+00 
4.3069528e-07 1.0937002e-05 0.0000000e+00 
5.8082478e-06 9.3950202e-06 0.0000000e+00 
0.0000000e+00 0.0000000e+00 0.0000000e+00 
7.2463067e-06 5.0525300e-06 0.0000000e+00 
4.0255682e-06 1.5954496e-06 0.0000000e+00 
4.5439442e-06 8.2997149e-06 0.0000000e+00 
4.8376023e-06 6.2143495e-06 0.0000000e+00 
0.0000000e+00 0.0000000e+00 0.0000000e+00 
4.0341911e-06 3.0489020e-06 0.0000000e+00 
5.9400209e-06 5.2820255e-06 0.0000000e+00 
2.0619893e-06 9.8089356e-07 0.0000000e+00 
3.8130565e-06 3.3067558e-06 0.0000000e+00 
0.0000000e+00 0.0000000e+00 0.0000000e+00 
2.2397726e-06 1.5315710e-06 0.0000000e+00 
4.7968988e-06 2.9020396e-06 0.0000000e+00 
1.0394924e-06 4.3624587e-07 0.0000000e+00 
2.7067902e-06 1.5464761e-06 0.0000000e+00 
0.0000000e+00 0.0000000e+00 0.0000000e+00 
3.3021774e-06 1.4481784e-06 0.0000000e+00 
9.8044461e-07 2.7268769e-07 0.0000000e+00 
0.0000000e+00 0.0000000e+00 0.0000000e+00 
3.4103243e-07 -1.0644580e-08 0.0000000e+00 
1.1038618e-06 2.7694455e-07 0.0000000e+00 
1.6305885e-06 5.7938041e-07 0.0000000e+00 
0.0000000e+00 0.0000000e+00 0.0000000e+00 
0.0000000e+00 0.0000000e+00 0.0000000e+00 
0.0000000e+00 0.0000000e+00 0.0000000e+00 
0.0000000e+00 0.0000000e+00 0.0000000e+00 
0.0000000e+00 0.0000000e+00 0.0000000e+00 
CELL_DATA 38
FIELD FieldData 0
