# vtk DataFile Version 4.0
vtk output
ASCII
DATASET UNSTRUCTURED_GRID
POINTS 101 float
0.0000000e+00 0.0000000e+00 0.0000000e+00 
0.0000000e+00 2.5000000e-01 0.0000000e+00 
2.5000000e-01 0.0000000e+00 0.0000000e+00 
2.5000000e-01 2.5000000e-01 0.0000000e+00 
0.0000000e+00 5.0000000e-01 0.0000000e+00 
5.0000000e-01 0.0000000e+00 0.0000000e+00 
3.5416666e-01 5.0558227e-01 0.0000000e+00 
6.0416669e-01 2.5558227e-01 0.0000000e+00 
0.0000000e+00 7.5000000e-01 0.0000000e+00 
7.5000000e-01 0.0000000e+00 0.0000000e+00 
2.5000000e-01 7.5000000e-01 0.0000000e+00 
7.0833331e-01 5.1116455e-01 0.0000000e+00 
8.5416669e-01 2.5558227e-01 0.0000000e+00 
6.0416669e-01 7.5558227e-01 0.0000000e+00 
0.0000000e+00 1.0000000e+00 0.0000000e+00 
1.0000000e+00 0.0000000e+00 0.0000000e+00 
2.5000000e-01 1.0000000e+00 0.0000000e+00 
9.7916669e-01 5.3907591e-01 0.0000000e+00 
5.0000000e-01 1.0000000e+00 0.0000000e+00 
8.5416669e-01 7.5558227e-01 0.0000000e+00 
1.1250000e+00 2.8349364e-01 0.0000000e+00 
7.5000000e-01 1.0000000e+00 0.0000000e+00 
1.2500000e+00 0.0000000e+00 0.0000000e+00 
1.1250000e+00 7.8349364e-01 0.0000000e+00 
1.2500000e+00 5.6698728e-01 0.0000000e+00 
1.3750000e+00 2.8349364e-01 0.0000000e+00 
1.0000000e+00 1.0000000e+00 0.0000000e+00 
1.5000000e+00 0.0000000e+00 0.0000000e+00 
1.3750000e+00 7.8349364e-01 0.0000000e+00 
1.2500000e+00 1.0000000e+00 0.0000000e+00 
1.5000000e+00 5.6698728e-01 0.0000000e+00 
1.6250000e+00 2.8349364e-01 0.0000000e+00 
1.7500000e+00 0.0000000e+00 0.0000000e+00 
1.5000000e+00 1.0000000e+00 0.0000000e+00 
1.6250000e+00 7.8349364e-01 0.0000000e+00 
1.7500000e+00 5.6698728e-01 0.0000000e+00 
1.8750000e+00 2.8349364e-01 0.0000000e+00 
2.0000000e+00 0.0000000e+00 0.0000000e+00 
1.7500000e+00 1.0000000e+00 0.0000000e+00 
1.8750000e+00 7.8349364e-01 0.0000000e+00 
2.0000000e+00 5.6698728e-01 0.0000000e+00 
2.1250000e+00 2.8349364e-01 0.0000000e+00 
2.0000000e+00 1.0000000e+00 0.0000000e+00 
2.2500000e+00 0.0000000e+00 0.0000000e+00 
2.1250000e+00 7.8349364e-01 0.0000000e+00 
2.2500000e+00 5.6698728e-01 0.0000000e+00 
2.3750000e+00 2.8349364e-01 0.0000000e+00 
2.2500000e+00 1.0000000e+00 0.0000000e+00 
2.5000000e+00 0.0000000e+00 0.0000000e+00 
2.3750000e+00 7.8349364e-01 0.0000000e+00 
2.5000000e+00 5.6698728e-01 0.0000000e+00 
2.6250000e+00 2.8349364e-01 0.0000000e+00 
2.5000000e+00 1.0000000e+00 0.0000000e+00 
2.6250000e+00 7.8349364e-01 0.0000000e+00 
2.7500000e+00 0.0000000e+00 0.0000000e+00 
2.7500000e+00 5.6698728e-01 0.0000000e+00 
2.8750000e+00 2.8349364e-01 0.0000000e+00 
2.7500000e+00 1.0000000e+00 0.0000000e+00 
2.8750000e+00 7.8349364e-01 0.0000000e+00 
3.0000000e+00 0.0000000e+00 0.0000000e+00 
3.0000000e+00 5.0000000e-01 0.0000000e+00 
3.1250000e+00 2.1650635e-01 0.0000000e+00 
3.0000000e+00 1.0000000e+00 0.0000000e+00 
3.1250000e+00 7.1650636e-01 0.0000000e+00 
3.2500000e+00 0.0000000e+00 0.0000000e+00 
3.2500000e+00 4.3301269e-01 0.0000000e+00 
3.3750000e+00 2.1650635e-01 0.0000000e+00 
3.2500000e+00 1.0000000e+00 0.0000000e+00 
3.3750000e+00 7.1650636e-01 0.0000000e+00 
3.5000000e+00 0.0000000e+00 0.0000000e+00 
3.5000000e+00 4.3301269e-01 0.0000000e+00 
3.6250000e+00 2.1650635e-01 0.0000000e+00 
3.5000000e+00 1.0000000e+00 0.0000000e+00 
3.6250000e+00 7.1650636e-01 0.0000000e+00 
3.7500000e+00 0.0000000e+00 0.0000000e+00 
3.7500000e+00 4.3301269e-01 0.0000000e+00 
3.8750000e+00 2.1650635e-01 0.0000000e+00 
3.7500000e+00 1.0000000e+00 0.0000000e+00 
3.8750000e+00 7.1650636e-01 0.0000000e+00 
4.0000000e+00 0.0000000e+00 0.0000000e+00 
4.0208335e+00 4.6092409e-01 0.0000000e+00 
4.0000000e+00 1.0000000e+00 0.0000000e+00 
4.1458335e+00 2.4441773e-01 0.0000000e+00 
4.1458335e+00 7.4441773e-01 0.0000000e+00 
4.2500000e+00 0.0000000e+00 0.0000000e+00 
4.2916665e+00 4.8883545e-01 0.0000000e+00 
4.2500000e+00 1.0000000e+00 0.0000000e+00 
4.3958335e+00 2.4441773e-01 0.0000000e+00 
4.3958335e+00 7.4441773e-01 0.0000000e+00 
4.5000000e+00 0.0000000e+00 0.0000000e+00 
4.5000000e+00 1.0000000e+00 0.0000000e+00 
4.6458335e+00 4.9441773e-01 0.0000000e+00 
4.7500000e+00 0.0000000e+00 0.0000000e+00 
4.7500000e+00 2.5000000e-01 0.0000000e+00 
4.7500000e+00 7.5000000e-01 0.0000000e+00 
4.7500000e+00 1.0000000e+00 0.0000000e+00 
5.0000000e+00 0.0000000e+00 0.0000000e+00 
5.0000000e+00 2.5000000e-01 0.0000000e+00 
5.0000000e+00 5.0000000e-01 0.0000000e+00 
5.0000000e+00 7.5000000e-01 0.0000000e+00 
5.0000000e+00 1.0000000e+00 0.0000000e+00 

CELLS 38 266
6 0 5 4 2 3 1
6 79 89 85 84 87 82
6 62 52 55 57 53 58
6 85 89 98 87 93 91
6 79 85 75 82 80 76
6 55 52 45 53 49 50
6 75 85 81 80 83 78
6 79 75 69 76 71 74
6 45 52 42 49 47 44
6 55 45 48 50 46 51
6 69 75 65 71 70 66
6 65 75 72 70 73 68
6 69 65 59 66 61 64
6 59 65 55 61 60 56
6 37 48 45 43 46 41
6 100 90 98 95 94 99
6 26 18 11 21 13 19
6 11 18 4 13 10 6
6 26 11 24 19 17 23
6 24 11 15 17 12 20
6 26 24 33 23 28 29
6 33 24 35 28 30 34
6 35 24 27 30 25 31
6 33 35 42 34 39 38
6 42 35 45 39 40 44
6 45 35 37 40 36 41
6 15 27 24 22 25 20
6 96 98 89 97 93 92
6 81 72 75 77 73 78
6 14 4 18 8 10 16
6 5 15 11 9 12 7
6 48 59 55 54 56 51
6 90 81 85 86 83 88
6 27 37 35 32 36 31
6 72 62 65 67 63 68
6 62 55 65 58 60 63
6 90 85 98 88 91 94
6 5 11 4 7 6 3

CELL_TYPES 38
22
22
22
22
22
22
22
22
22
22
22
22
22
22
22
22
22
22
22
22
22
22
22
22
22
22
22
22
22
22
22
22
22
22
22
22
22
22
POINT_DATA 101
FIELD FieldData 2
DISPLACEMENT 3 101  float
0.0000000e+00 0.0000000e+00 0.0000000e+00 
0.0000000e+00 0.0000000e+00 0.0000000e+00 
0.0000000e+00 0.0000000e+00 0.0000000e+00 
-2.9224469e-07 -1.4239561e-07 0.0000000e+00 
0.0000000e+00 0.0000000e+00 0.0000000e+00 
0.0000000e+00 0.0000000e+00 0.0000000e+00 
-7.5537378e-07 -2.0258133e-07 0.0000000e+00 
-7.2199464e-07 -2.1982770e-07 0.0000000e+00 
0.0000000e+00 0.0000000e+00 0.0000000e+00 
0.0000000e+00 0.0000000e+00 0.0000000e+00 
-6.7239245e-07 -6.7458529e-08 0.0000000e+00 
-1.6056983e-06 -2.6835090e-07 0.0000000e+00 
-1.0491879e-06 -2.3598542e-07 0.0000000e+00 
-1.7793440e-06 -1.3718164e-07 0.0000000e+00 
0.0000000e+00 0.0000000e+00 0.0000000e+00 
0.0000000e+00 0.0000000e+00 0.0000000e+00 
-7.2975303e-07 9.2523493e-08 0.0000000e+00 
-2.4613539e-06 -2.4001628e-07 0.0000000e+00 
-1.5697443e-06 8.7389267e-08 0.0000000e+00 
-2.6884284e-06 -1.3094186e-07 0.0000000e+00 
-1.6039353e-06 -2.0925232e-07 0.0000000e+00 
-2.5641702e-06 8.9308863e-08 0.0000000e+00 
0.0000000e+00 0.0000000e+00 0.0000000e+00 
-3.9583483e-06 2.7550465e-08 0.0000000e+00 
-3.5355665e-06 -4.0968107e-08 0.0000000e+00 
-2.1100154e-06 -5.9563416e-08 0.0000000e+00 
-3.7592083e-06 2.1066467e-07 0.0000000e+00 
0.0000000e+00 0.0000000e+00 0.0000000e+00 
-5.3080512e-06 4.1762803e-07 0.0000000e+00 
-5.3039771e-06 5.0052756e-07 0.0000000e+00 
-4.6017376e-06 4.5145043e-07 0.0000000e+00 
-2.8100849e-06 3.2029391e-07 0.0000000e+00 
0.0000000e+00 0.0000000e+00 0.0000000e+00 
-7.2133648e-06 1.1836818e-06 0.0000000e+00 
-6.9014282e-06 1.3233055e-06 0.0000000e+00 
-5.9130566e-06 1.5954521e-06 0.0000000e+00 
-3.9643228e-06 1.0525230e-06 0.0000000e+00 
0.0000000e+00 0.0000000e+00 0.0000000e+00 
-9.5809364e-06 2.5794279e-06 0.0000000e+00 
-8.6833716e-06 3.1077573e-06 0.0000000e+00 
-7.6568185e-06 3.5928820e-06 0.0000000e+00 
-6.0720608e-06 2.3394639e-06 0.0000000e+00 
-1.2202539e-05 5.0418980e-06 0.0000000e+00 
0.0000000e+00 0.0000000e+00 0.0000000e+00 
-1.0479989e-05 6.4364476e-06 0.0000000e+00 
-1.0149181e-05 7.3664960e-06 0.0000000e+00 
-1.0321030e-05 3.9814690e-06 0.0000000e+00 
-1.4076131e-05 9.3020899e-06 0.0000000e+00 
0.0000000e+00 0.0000000e+00 0.0000000e+00 
-1.1858780e-05 1.1485204e-05 0.0000000e+00 
-1.4549017e-05 1.1763335e-05 0.0000000e+00 
-1.8485582e-05 5.4390725e-06 0.0000000e+00 
-1.4276797e-05 1.5114572e-05 0.0000000e+00 
-1.2216797e-05 1.8477234e-05 0.0000000e+00 
0.0000000e+00 0.0000000e+00 0.0000000e+00 
-2.2116317e-05 1.6696074e-05 0.0000000e+00 
-3.3979286e-05 4.0115629e-06 0.0000000e+00 
-4.7284452e-06 2.1221504e-05 0.0000000e+00 
-1.1115217e-05 2.3058548e-05 0.0000000e+00 
0.0000000e+00 0.0000000e+00 0.0000000e+00 
-4.4967535e-05 1.1203963e-05 0.0000000e+00 
-5.5391218e-05 -7.7990117e-06 0.0000000e+00 
1.7030243e-05 2.1214206e-05 0.0000000e+00 
-2.1178272e-05 1.2615554e-05 0.0000000e+00 
0.0000000e+00 0.0000000e+00 0.0000000e+00 
-8.6214372e-05 -1.7026965e-05 0.0000000e+00 
-9.6905591e-05 -3.5834113e-05 0.0000000e+00 
7.5803109e-05 -8.7108638e-06 0.0000000e+00 
-3.0404597e-05 -3.4752917e-05 0.0000000e+00 
0.0000000e+00 0.0000000e+00 0.0000000e+00 
-1.5157404e-04 -8.8259061e-05 0.0000000e+00 
-1.5185404e-04 -1.0664461e-04 0.0000000e+00 
1.6364492e-04 -9.1236412e-05 0.0000000e+00 
-5.5662982e-05 -1.7332578e-04 0.0000000e+00 
0.0000000e+00 0.0000000e+00 0.0000000e+00 
-2.4622327e-04 -2.8416779e-04 0.0000000e+00 
-1.8590219e-04 -2.2419455e-04 0.0000000e+00 
3.3641839e-04 -3.2841621e-04 0.0000000e+00 
-1.1975630e-04 -5.0731335e-04 0.0000000e+00 
0.0000000e+00 0.0000000e+00 0.0000000e+00 
-2.7749810e-04 -6.6086673e-04 0.0000000e+00 
5.3695258e-04 -7.7263097e-04 0.0000000e+00 
-1.6840210e-04 -4.3283851e-04 0.0000000e+00 
-2.5064364e-04 -1.4328863e-03 0.0000000e+00 
0.0000000e+00 0.0000000e+00 0.0000000e+00 
-1.4556099e-04 -1.1569763e-03 0.0000000e+00 
3.6581582e-04 -2.6278906e-03 0.0000000e+00 
-2.6165408e-05 -5.0245057e-04 0.0000000e+00 
-2.0740469e-04 -2.4306914e-03 0.0000000e+00 
0.0000000e+00 0.0000000e+00 0.0000000e+00 
-2.4913915e-04 -4.2578722e-03 0.0000000e+00 
1.4973110e-04 -9.2535053e-04 0.0000000e+00 
0.0000000e+00 0.0000000e+00 0.0000000e+00 
1.0173182e-04 -3.3350231e-04 0.0000000e+00 
2.1131503e-04 -1.1564397e-03 0.0000000e+00 
-5.8952300e-04 -1.2623064e-03 0.0000000e+00 
0.0000000e+00 0.0000000e+00 0.0000000e+00 
0.0000000e+00 0.0000000e+00 0.0000000e+00 
0.0000000e+00 0.0000000e+00 0.0000000e+00 
0.0000000e+00 0.0000000e+00 0.0000000e+00 
0.0000000e+00 0.0000000e+00 0.0000000e+00 
TOTAL_DISPLACEMENT 3 101  float
0.0000000e+00 0.0000000e+00 0.0000000e+00 
0.0000000e+00 0.0000000e+00 0.0000000e+00 
0.0000000e+00 0.0000000e+00 0.0000000e+00 
-2.9224469e-07 -1.4239561e-07 0.0000000e+00 
0.0000000e+00 0.0000000e+00 0.0000000e+00 
0.0000000e+00 0.0000000e+00 0.0000000e+00 
-7.5537378e-07 -2.0258133e-07 0.0000000e+00 
-7.2199464e-07 -2.1982770e-07 0.0000000e+00 
0.0000000e+00 0.0000000e+00 0.0000000e+00 
0.0000000e+00 0.0000000e+00 0.0000000e+00 
-6.7239245e-07 -6.7458529e-08 0.0000000e+00 
-1.6056983e-06 -2.6835090e-07 0.0000000e+00 
-1.0491879e-06 -2.3598542e-07 0.0000000e+00 
-1.7793440e-06 -1.3718164e-07 0.0000000e+00 
0.0000000e+00 0.0000000e+00 0.0000000e+00 
0.0000000e+00 0.0000000e+00 0.0000000e+00 
-7.2975303e-07 9.2523493e-08 0.0000000e+00 
-2.4613539e-06 -2.4001628e-07 0.0000000e+00 
-1.5697443e-06 8.7389267e-08 0.0000000e+00 
-2.6884284e-06 -1.3094186e-07 0.0000000e+00 
-1.6039353e-06 -2.0925232e-07 0.0000000e+00 
-2.5641702e-06 8.9308863e-08 0.0000000e+00 
0.0000000e+00 0.0000000e+00 0.0000000e+00 
-3.9583483e-06 2.7550465e-08 0.0000000e+00 
-3.5355665e-06 -4.0968107e-08 0.0000000e+00 
-2.1100154e-06 -5.9563416e-08 0.0000000e+00 
-3.7592083e-06 2.1066467e-07 0.0000000e+00 
0.0000000e+00 0.0000000e+00 0.0000000e+00 
-5.3080512e-06 4.1762803e-07 0.0000000e+00 
-5.3039771e-06 5.0052756e-07 0.0000000e+00 
-4.6017376e-06 4.5145043e-07 0.0000000e+00 
-2.8100849e-06 3.2029391e-07 0.0000000e+00 
0.0000000e+00 0.0000000e+00 0.0000000e+00 
-7.2133648e-06 1.1836818e-06 0.0000000e+00 
-6.9014282e-06 1.3233055e-06 0.0000000e+00 
-5.9130566e-06 1.5954521e-06 0.0000000e+00 
-3.9643228e-06 1.0525230e-06 0.0000000e+00 
0.0000000e+00 0.0000000e+00 0.0000000e+00 
-9.5809364e-06 2.5794279e-06 0.0000000e+00 
-8.6833716e-06 3.1077573e-06 0.0000000e+00 
-7.6568185e-06 3.5928820e-06 0.0000000e+00 
-6.0720608e-06 2.3394639e-06 0.0000000e+00 
-1.2202539e-05 5.0418980e-06 0.0000000e+00 
0.0000000e+00 0.0000000e+00 0.0000000e+00 
-1.0479989e-05 6.4364476e-06 0.0000000e+00 
-1.0149181e-05 7.3664960e-06 0.0000000e+00 
-1.0321030e-05 3.9814690e-06 0.0000000e+00 
-1.4076131e-05 9.3020899e-06 0.0000000e+00 
0.0000000e+00 0.0000000e+00 0.0000000e+00 
-1.1858780e-05 1.1485204e-05 0.0000000e+00 
-1.4549017e-05 1.1763335e-05 0.0000000e+00 
-1.8485582e-05 5.4390725e-06 0.0000000e+00 
-1.4276797e-05 1.5114572e-05 0.0000000e+00 
-1.2216797e-05 1.8477234e-05 0.0000000e+00 
0.0000000e+00 0.0000000e+00 0.0000000e+00 
-2.2116317e-05 1.6696074e-05 0.0000000e+00 
-3.3979286e-05 4.0115629e-06 0.0000000e+00 
-4.7284452e-06 2.1221504e-05 0.0000000e+00 
-1.1115217e-05 2.3058548e-05 0.0000000e+00 
0.0000000e+00 0.0000000e+00 0.0000000e+00 
-4.4967535e-05 1.1203963e-05 0.0000000e+00 
-5.5391218e-05 -7.7990117e-06 0.0000000e+00 
1.7030243e-05 2.1214206e-05 0.0000000e+00 
-2.1178272e-05 1.2615554e-05 0.0000000e+00 
0.0000000e+00 0.0000000e+00 0.0000000e+00 
-8.6214372e-05 -1.7026965e-05 0.0000000e+00 
-9.6905591e-05 -3.5834113e-05 0.0000000e+00 
7.5803109e-05 -8.7108638e-06 0.0000000e+00 
-3.0404597e-05 -3.4752917e-05 0.0000000e+00 
0.0000000e+00 0.0000000e+00 0.0000000e+00 
-1.5157404e-04 -8.8259061e-05 0.0000000e+00 
-1.5185404e-04 -1.0664461e-04 0.0000000e+00 
1.6364492e-04 -9.1236412e-05 0.0000000e+00 
-5.5662982e-05 -1.7332578e-04 0.0000000e+00 
0.0000000e+00 0.0000000e+00 0.0000000e+00 
-2.4622327e-04 -2.8416779e-04 0.0000000e+00 
-1.8590219e-04 -2.2419455e-04 0.0000000e+00 
3.3641839e-04 -3.2841621e-04 0.0000000e+00 
-1.1975630e-04 -5.0731335e-04 0.0000000e+00 
0.0000000e+00 0.0000000e+00 0.0000000e+00 
-2.7749810e-04 -6.6086673e-04 0.0000000e+00 
5.3695258e-04 -7.7263097e-04 0.0000000e+00 
-1.6840210e-04 -4.3283851e-04 0.0000000e+00 
-2.5064364e-04 -1.4328863e-03 0.0000000e+00 
0.0000000e+00 0.0000000e+00 0.0000000e+00 
-1.4556099e-04 -1.1569763e-03 0.0000000e+00 
3.6581582e-04 -2.6278906e-03 0.0000000e+00 
-2.6165408e-05 -5.0245057e-04 0.0000000e+00 
-2.0740469e-04 -2.4306914e-03 0.0000000e+00 
0.0000000e+00 0.0000000e+00 0.0000000e+00 
-2.4913915e-04 -4.2578722e-03 0.0000000e+00 
1.4973110e-04 -9.2535053e-04 0.0000000e+00 
0.0000000e+00 0.0000000e+00 0.0000000e+00 
1.0173182e-04 -3.3350231e-04 0.0000000e+00 
2.1131503e-04 -1.1564397e-03 0.0000000e+00 
-5.8952300e-04 -1.2623064e-03 0.0000000e+00 
0.0000000e+00 0.0000000e+00 0.0000000e+00 
0.0000000e+00 0.0000000e+00 0.0000000e+00 
0.0000000e+00 0.0000000e+00 0.0000000e+00 
0.0000000e+00 0.0000000e+00 0.0000000e+00 
0.0000000e+00 0.0000000e+00 0.0000000e+00 
CELL_DATA 38
FIELD FieldData 0
