# vtk DataFile Version 4.0
vtk output
ASCII
DATASET UNSTRUCTURED_GRID
POINTS 101 float
0.0000000e+00 0.0000000e+00 0.0000000e+00 
0.0000000e+00 2.5000000e-01 0.0000000e+00 
2.5000000e-01 0.0000000e+00 0.0000000e+00 
2.5000000e-01 2.5000000e-01 0.0000000e+00 
0.0000000e+00 5.0000000e-01 0.0000000e+00 
5.0000000e-01 0.0000000e+00 0.0000000e+00 
3.5416666e-01 5.0558227e-01 0.0000000e+00 
6.0416669e-01 2.5558227e-01 0.0000000e+00 
0.0000000e+00 7.5000000e-01 0.0000000e+00 
7.5000000e-01 0.0000000e+00 0.0000000e+00 
2.5000000e-01 7.5000000e-01 0.0000000e+00 
7.0833331e-01 5.1116455e-01 0.0000000e+00 
8.5416669e-01 2.5558227e-01 0.0000000e+00 
6.0416669e-01 7.5558227e-01 0.0000000e+00 
0.0000000e+00 1.0000000e+00 0.0000000e+00 
1.0000000e+00 0.0000000e+00 0.0000000e+00 
2.5000000e-01 1.0000000e+00 0.0000000e+00 
9.7916669e-01 5.3907591e-01 0.0000000e+00 
5.0000000e-01 1.0000000e+00 0.0000000e+00 
8.5416669e-01 7.5558227e-01 0.0000000e+00 
1.1250000e+00 2.8349364e-01 0.0000000e+00 
7.5000000e-01 1.0000000e+00 0.0000000e+00 
1.2500000e+00 0.0000000e+00 0.0000000e+00 
1.1250000e+00 7.8349364e-01 0.0000000e+00 
1.2500000e+00 5.6698728e-01 0.0000000e+00 
1.3750000e+00 2.8349364e-01 0.0000000e+00 
1.0000000e+00 1.0000000e+00 0.0000000e+00 
1.5000000e+00 0.0000000e+00 0.0000000e+00 
1.3750000e+00 7.8349364e-01 0.0000000e+00 
1.2500000e+00 1.0000000e+00 0.0000000e+00 
1.5000000e+00 5.6698728e-01 0.0000000e+00 
1.6250000e+00 2.8349364e-01 0.0000000e+00 
1.7500000e+00 0.0000000e+00 0.0000000e+00 
1.5000000e+00 1.0000000e+00 0.0000000e+00 
1.6250000e+00 7.8349364e-01 0.0000000e+00 
1.7500000e+00 5.6698728e-01 0.0000000e+00 
1.8750000e+00 2.8349364e-01 0.0000000e+00 
2.0000000e+00 0.0000000e+00 0.0000000e+00 
1.7500000e+00 1.0000000e+00 0.0000000e+00 
1.8750000e+00 7.8349364e-01 0.0000000e+00 
2.0000000e+00 5.6698728e-01 0.0000000e+00 
2.1250000e+00 2.8349364e-01 0.0000000e+00 
2.0000000e+00 1.0000000e+00 0.0000000e+00 
2.2500000e+00 0.0000000e+00 0.0000000e+00 
2.1250000e+00 7.8349364e-01 0.0000000e+00 
2.2500000e+00 5.6698728e-01 0.0000000e+00 
2.3750000e+00 2.8349364e-01 0.0000000e+00 
2.2500000e+00 1.0000000e+00 0.0000000e+00 
2.5000000e+00 0.0000000e+00 0.0000000e+00 
2.3750000e+00 7.8349364e-01 0.0000000e+00 
2.5000000e+00 5.6698728e-01 0.0000000e+00 
2.6250000e+00 2.8349364e-01 0.0000000e+00 
2.5000000e+00 1.0000000e+00 0.0000000e+00 
2.6250000e+00 7.8349364e-01 0.0000000e+00 
2.7500000e+00 0.0000000e+00 0.0000000e+00 
2.7500000e+00 5.6698728e-01 0.0000000e+00 
2.8750000e+00 2.8349364e-01 0.0000000e+00 
2.7500000e+00 1.0000000e+00 0.0000000e+00 
2.8750000e+00 7.8349364e-01 0.0000000e+00 
3.0000000e+00 0.0000000e+00 0.0000000e+00 
3.0000000e+00 5.0000000e-01 0.0000000e+00 
3.1250000e+00 2.1650635e-01 0.0000000e+00 
3.0000000e+00 1.0000000e+00 0.0000000e+00 
3.1250000e+00 7.1650636e-01 0.0000000e+00 
3.2500000e+00 0.0000000e+00 0.0000000e+00 
3.2500000e+00 4.3301269e-01 0.0000000e+00 
3.3750000e+00 2.1650635e-01 0.0000000e+00 
3.2500000e+00 1.0000000e+00 0.0000000e+00 
3.3750000e+00 7.1650636e-01 0.0000000e+00 
3.5000000e+00 0.0000000e+00 0.0000000e+00 
3.5000000e+00 4.3301269e-01 0.0000000e+00 
3.6250000e+00 2.1650635e-01 0.0000000e+00 
3.5000000e+00 1.0000000e+00 0.0000000e+00 
3.6250000e+00 7.1650636e-01 0.0000000e+00 
3.7500000e+00 0.0000000e+00 0.0000000e+00 
3.7500000e+00 4.3301269e-01 0.0000000e+00 
3.8750000e+00 2.1650635e-01 0.0000000e+00 
3.7500000e+00 1.0000000e+00 0.0000000e+00 
3.8750000e+00 7.1650636e-01 0.0000000e+00 
4.0000000e+00 0.0000000e+00 0.0000000e+00 
4.0208335e+00 4.6092409e-01 0.0000000e+00 
4.0000000e+00 1.0000000e+00 0.0000000e+00 
4.1458335e+00 2.4441773e-01 0.0000000e+00 
4.1458335e+00 7.4441773e-01 0.0000000e+00 
4.2500000e+00 0.0000000e+00 0.0000000e+00 
4.2916665e+00 4.8883545e-01 0.0000000e+00 
4.2500000e+00 1.0000000e+00 0.0000000e+00 
4.3958335e+00 2.4441773e-01 0.0000000e+00 
4.3958335e+00 7.4441773e-01 0.0000000e+00 
4.5000000e+00 0.0000000e+00 0.0000000e+00 
4.5000000e+00 1.0000000e+00 0.0000000e+00 
4.6458335e+00 4.9441773e-01 0.0000000e+00 
4.7500000e+00 0.0000000e+00 0.0000000e+00 
4.7500000e+00 2.5000000e-01 0.0000000e+00 
4.7500000e+00 7.5000000e-01 0.0000000e+00 
4.7500000e+00 1.0000000e+00 0.0000000e+00 
5.0000000e+00 0.0000000e+00 0.0000000e+00 
5.0000000e+00 2.5000000e-01 0.0000000e+00 
5.0000000e+00 5.0000000e-01 0.0000000e+00 
5.0000000e+00 7.5000000e-01 0.0000000e+00 
5.0000000e+00 1.0000000e+00 0.0000000e+00 

CELLS 38 266
6 0 5 4 2 3 1
6 79 89 85 84 87 82
6 62 52 55 57 53 58
6 85 89 98 87 93 91
6 79 85 75 82 80 76
6 55 52 45 53 49 50
6 75 85 81 80 83 78
6 79 75 69 76 71 74
6 45 52 42 49 47 44
6 55 45 48 50 46 51
6 69 75 65 71 70 66
6 65 75 72 70 73 68
6 69 65 59 66 61 64
6 59 65 55 61 60 56
6 37 48 45 43 46 41
6 100 90 98 95 94 99
6 26 18 11 21 13 19
6 11 18 4 13 10 6
6 26 11 24 19 17 23
6 24 11 15 17 12 20
6 26 24 33 23 28 29
6 33 24 35 28 30 34
6 35 24 27 30 25 31
6 33 35 42 34 39 38
6 42 35 45 39 40 44
6 45 35 37 40 36 41
6 15 27 24 22 25 20
6 96 98 89 97 93 92
6 81 72 75 77 73 78
6 14 4 18 8 10 16
6 5 15 11 9 12 7
6 48 59 55 54 56 51
6 90 81 85 86 83 88
6 27 37 35 32 36 31
6 72 62 65 67 63 68
6 62 55 65 58 60 63
6 90 85 98 88 91 94
6 5 11 4 7 6 3

CELL_TYPES 38
22
22
22
22
22
22
22
22
22
22
22
22
22
22
22
22
22
22
22
22
22
22
22
22
22
22
22
22
22
22
22
22
22
22
22
22
22
22
POINT_DATA 101
FIELD FieldData 1
DISPLACEMENT 3 101  float
0.0000000e+00 0.0000000e+00 0.0000000e+00 
0.0000000e+00 0.0000000e+00 0.0000000e+00 
0.0000000e+00 0.0000000e+00 0.0000000e+00 
-1.8869259e-04 -7.1219500e-04 0.0000000e+00 
0.0000000e+00 0.0000000e+00 0.0000000e+00 
0.0000000e+00 0.0000000e+00 0.0000000e+00 
-1.8812335e-04 -2.0577954e-03 0.0000000e+00 
7.5439355e-05 -1.0187126e-03 0.0000000e+00 
0.0000000e+00 0.0000000e+00 0.0000000e+00 
0.0000000e+00 0.0000000e+00 0.0000000e+00 
-4.2206584e-04 -2.8580399e-03 0.0000000e+00 
3.3033264e-04 -2.2029812e-03 0.0000000e+00 
2.4533083e-04 -9.0721034e-04 0.0000000e+00 
6.7249889e-04 -4.7747581e-03 0.0000000e+00 
0.0000000e+00 0.0000000e+00 0.0000000e+00 
0.0000000e+00 0.0000000e+00 0.0000000e+00 
1.0699718e-03 -3.5884816e-03 0.0000000e+00 
3.4759598e-04 -1.5779401e-03 0.0000000e+00 
2.2630638e-04 -9.3045104e-03 0.0000000e+00 
3.9307322e-04 -2.4010022e-03 0.0000000e+00 
2.5775348e-04 -7.7216240e-04 0.0000000e+00 
-6.3016172e-04 -3.5804147e-03 0.0000000e+00 
0.0000000e+00 0.0000000e+00 0.0000000e+00 
-1.5704718e-05 -1.6533205e-03 0.0000000e+00 
2.2488795e-04 -1.3497144e-03 0.0000000e+00 
2.3989071e-04 -6.4755563e-04 0.0000000e+00 
-5.0158886e-04 -1.8152553e-03 0.0000000e+00 
0.0000000e+00 0.0000000e+00 0.0000000e+00 
-1.4522609e-04 -2.0855065e-03 0.0000000e+00 
-1.1685835e-04 -2.0705489e-03 0.0000000e+00 
2.4071311e-04 -1.2622388e-03 0.0000000e+00 
2.7371562e-04 -5.0030823e-04 0.0000000e+00 
0.0000000e+00 0.0000000e+00 0.0000000e+00 
-2.7836161e-04 -3.6118543e-03 0.0000000e+00 
2.1086889e-04 -1.7446900e-03 0.0000000e+00 
2.8330175e-04 -7.9145969e-04 0.0000000e+00 
2.5738342e-04 -3.0508402e-04 0.0000000e+00 
0.0000000e+00 0.0000000e+00 0.0000000e+00 
-5.1206193e-04 -1.2086570e-03 0.0000000e+00 
8.7157889e-05 -6.8394205e-04 0.0000000e+00 
2.2600300e-04 -3.7116470e-04 0.0000000e+00 
1.9793930e-04 -1.4668419e-04 0.0000000e+00 
-3.6451328e-04 -4.3680717e-04 0.0000000e+00 
0.0000000e+00 0.0000000e+00 0.0000000e+00 
2.3011515e-05 -2.4009784e-04 0.0000000e+00 
1.5130307e-04 -1.3135670e-04 0.0000000e+00 
1.3239657e-04 -5.5621618e-05 0.0000000e+00 
-1.9028882e-04 -1.3959313e-04 0.0000000e+00 
0.0000000e+00 0.0000000e+00 0.0000000e+00 
1.2203317e-05 -5.5516797e-05 0.0000000e+00 
8.9326648e-05 -2.4558092e-05 0.0000000e+00 
8.0554702e-05 -1.3322408e-05 0.0000000e+00 
-6.6978217e-05 -1.9220783e-05 0.0000000e+00 
1.4497571e-05 7.0159858e-06 0.0000000e+00 
0.0000000e+00 0.0000000e+00 0.0000000e+00 
5.0461033e-05 1.1409786e-05 0.0000000e+00 
4.6713951e-05 1.8551497e-06 0.0000000e+00 
-1.6944055e-05 1.5278005e-05 0.0000000e+00 
1.8004774e-05 2.2134649e-05 0.0000000e+00 
0.0000000e+00 0.0000000e+00 0.0000000e+00 
3.5134533e-05 1.3358528e-05 0.0000000e+00 
2.2602177e-05 2.9102762e-06 0.0000000e+00 
1.0906337e-05 2.0595293e-05 0.0000000e+00 
2.0307984e-05 1.8256964e-05 0.0000000e+00 
0.0000000e+00 0.0000000e+00 0.0000000e+00 
2.2374614e-05 9.8452865e-06 0.0000000e+00 
1.2208192e-05 2.8044478e-06 0.0000000e+00 
1.7275244e-05 1.6643753e-05 0.0000000e+00 
1.7139704e-05 1.2614322e-05 0.0000000e+00 
0.0000000e+00 0.0000000e+00 0.0000000e+00 
1.4122957e-05 5.9082454e-06 0.0000000e+00 
6.9621583e-06 1.5882329e-06 0.0000000e+00 
1.8808745e-05 1.1015662e-05 0.0000000e+00 
1.3841399e-05 7.2069543e-06 0.0000000e+00 
0.0000000e+00 0.0000000e+00 0.0000000e+00 
8.9915648e-06 3.1996910e-06 0.0000000e+00 
4.1857170e-06 7.3109021e-07 0.0000000e+00 
1.5732328e-05 6.4278215e-06 0.0000000e+00 
1.0741544e-05 3.5651422e-06 0.0000000e+00 
0.0000000e+00 0.0000000e+00 0.0000000e+00 
6.3846651e-06 1.1577843e-06 0.0000000e+00 
1.2200911e-05 3.3682959e-06 0.0000000e+00 
2.9413511e-06 6.5340487e-08 0.0000000e+00 
7.9545116e-06 1.3732146e-06 0.0000000e+00 
0.0000000e+00 0.0000000e+00 0.0000000e+00 
4.4172261e-06 1.3770436e-07 0.0000000e+00 
8.5448746e-06 1.6369775e-06 0.0000000e+00 
1.9030017e-06 -2.6246434e-07 0.0000000e+00 
5.3613803e-06 3.5602523e-07 0.0000000e+00 
0.0000000e+00 0.0000000e+00 0.0000000e+00 
5.2994901e-06 8.2850721e-07 0.0000000e+00 
2.1041465e-06 -3.8158512e-07 0.0000000e+00 
0.0000000e+00 0.0000000e+00 0.0000000e+00 
7.8217204e-07 -3.3994806e-07 0.0000000e+00 
2.0782732e-06 -7.3722042e-08 0.0000000e+00 
2.4883068e-06 4.4794459e-07 0.0000000e+00 
0.0000000e+00 0.0000000e+00 0.0000000e+00 
0.0000000e+00 0.0000000e+00 0.0000000e+00 
0.0000000e+00 0.0000000e+00 0.0000000e+00 
0.0000000e+00 0.0000000e+00 0.0000000e+00 
0.0000000e+00 0.0000000e+00 0.0000000e+00 
CELL_DATA 38
FIELD FieldData 0
