# vtk DataFile Version 4.0
vtk output
ASCII
DATASET UNSTRUCTURED_GRID
POINTS 101 float
0.0000000e+00 0.0000000e+00 0.0000000e+00 
0.0000000e+00 2.5000000e-01 0.0000000e+00 
2.5000000e-01 0.0000000e+00 0.0000000e+00 
2.5000000e-01 2.5000000e-01 0.0000000e+00 
0.0000000e+00 5.0000000e-01 0.0000000e+00 
5.0000000e-01 0.0000000e+00 0.0000000e+00 
3.5416666e-01 5.0558227e-01 0.0000000e+00 
6.0416669e-01 2.5558227e-01 0.0000000e+00 
0.0000000e+00 7.5000000e-01 0.0000000e+00 
7.5000000e-01 0.0000000e+00 0.0000000e+00 
2.5000000e-01 7.5000000e-01 0.0000000e+00 
7.0833331e-01 5.1116455e-01 0.0000000e+00 
8.5416669e-01 2.5558227e-01 0.0000000e+00 
6.0416669e-01 7.5558227e-01 0.0000000e+00 
0.0000000e+00 1.0000000e+00 0.0000000e+00 
1.0000000e+00 0.0000000e+00 0.0000000e+00 
2.5000000e-01 1.0000000e+00 0.0000000e+00 
9.7916669e-01 5.3907591e-01 0.0000000e+00 
5.0000000e-01 1.0000000e+00 0.0000000e+00 
8.5416669e-01 7.5558227e-01 0.0000000e+00 
1.1250000e+00 2.8349364e-01 0.0000000e+00 
7.5000000e-01 1.0000000e+00 0.0000000e+00 
1.2500000e+00 0.0000000e+00 0.0000000e+00 
1.1250000e+00 7.8349364e-01 0.0000000e+00 
1.2500000e+00 5.6698728e-01 0.0000000e+00 
1.3750000e+00 2.8349364e-01 0.0000000e+00 
1.0000000e+00 1.0000000e+00 0.0000000e+00 
1.5000000e+00 0.0000000e+00 0.0000000e+00 
1.3750000e+00 7.8349364e-01 0.0000000e+00 
1.2500000e+00 1.0000000e+00 0.0000000e+00 
1.5000000e+00 5.6698728e-01 0.0000000e+00 
1.6250000e+00 2.8349364e-01 0.0000000e+00 
1.7500000e+00 0.0000000e+00 0.0000000e+00 
1.5000000e+00 1.0000000e+00 0.0000000e+00 
1.6250000e+00 7.8349364e-01 0.0000000e+00 
1.7500000e+00 5.6698728e-01 0.0000000e+00 
1.8750000e+00 2.8349364e-01 0.0000000e+00 
2.0000000e+00 0.0000000e+00 0.0000000e+00 
1.7500000e+00 1.0000000e+00 0.0000000e+00 
1.8750000e+00 7.8349364e-01 0.0000000e+00 
2.0000000e+00 5.6698728e-01 0.0000000e+00 
2.1250000e+00 2.8349364e-01 0.0000000e+00 
2.0000000e+00 1.0000000e+00 0.0000000e+00 
2.2500000e+00 0.0000000e+00 0.0000000e+00 
2.1250000e+00 7.8349364e-01 0.0000000e+00 
2.2500000e+00 5.6698728e-01 0.0000000e+00 
2.3750000e+00 2.8349364e-01 0.0000000e+00 
2.2500000e+00 1.0000000e+00 0.0000000e+00 
2.5000000e+00 0.0000000e+00 0.0000000e+00 
2.3750000e+00 7.8349364e-01 0.0000000e+00 
2.5000000e+00 5.6698728e-01 0.0000000e+00 
2.6250000e+00 2.8349364e-01 0.0000000e+00 
2.5000000e+00 1.0000000e+00 0.0000000e+00 
2.6250000e+00 7.8349364e-01 0.0000000e+00 
2.7500000e+00 0.0000000e+00 0.0000000e+00 
2.7500000e+00 5.6698728e-01 0.0000000e+00 
2.8750000e+00 2.8349364e-01 0.0000000e+00 
2.7500000e+00 1.0000000e+00 0.0000000e+00 
2.8750000e+00 7.8349364e-01 0.0000000e+00 
3.0000000e+00 0.0000000e+00 0.0000000e+00 
3.0000000e+00 5.0000000e-01 0.0000000e+00 
3.1250000e+00 2.1650635e-01 0.0000000e+00 
3.0000000e+00 1.0000000e+00 0.0000000e+00 
3.1250000e+00 7.1650636e-01 0.0000000e+00 
3.2500000e+00 0.0000000e+00 0.0000000e+00 
3.2500000e+00 4.3301269e-01 0.0000000e+00 
3.3750000e+00 2.1650635e-01 0.0000000e+00 
3.2500000e+00 1.0000000e+00 0.0000000e+00 
3.3750000e+00 7.1650636e-01 0.0000000e+00 
3.5000000e+00 0.0000000e+00 0.0000000e+00 
3.5000000e+00 4.3301269e-01 0.0000000e+00 
3.6250000e+00 2.1650635e-01 0.0000000e+00 
3.5000000e+00 1.0000000e+00 0.0000000e+00 
3.6250000e+00 7.1650636e-01 0.0000000e+00 
3.7500000e+00 0.0000000e+00 0.0000000e+00 
3.7500000e+00 4.3301269e-01 0.0000000e+00 
3.8750000e+00 2.1650635e-01 0.0000000e+00 
3.7500000e+00 1.0000000e+00 0.0000000e+00 
3.8750000e+00 7.1650636e-01 0.0000000e+00 
4.0000000e+00 0.0000000e+00 0.0000000e+00 
4.0208335e+00 4.6092409e-01 0.0000000e+00 
4.0000000e+00 1.0000000e+00 0.0000000e+00 
4.1458335e+00 2.4441773e-01 0.0000000e+00 
4.1458335e+00 7.4441773e-01 0.0000000e+00 
4.2500000e+00 0.0000000e+00 0.0000000e+00 
4.2916665e+00 4.8883545e-01 0.0000000e+00 
4.2500000e+00 1.0000000e+00 0.0000000e+00 
4.3958335e+00 2.4441773e-01 0.0000000e+00 
4.3958335e+00 7.4441773e-01 0.0000000e+00 
4.5000000e+00 0.0000000e+00 0.0000000e+00 
4.5000000e+00 1.0000000e+00 0.0000000e+00 
4.6458335e+00 4.9441773e-01 0.0000000e+00 
4.7500000e+00 0.0000000e+00 0.0000000e+00 
4.7500000e+00 2.5000000e-01 0.0000000e+00 
4.7500000e+00 7.5000000e-01 0.0000000e+00 
4.7500000e+00 1.0000000e+00 0.0000000e+00 
5.0000000e+00 0.0000000e+00 0.0000000e+00 
5.0000000e+00 2.5000000e-01 0.0000000e+00 
5.0000000e+00 5.0000000e-01 0.0000000e+00 
5.0000000e+00 7.5000000e-01 0.0000000e+00 
5.0000000e+00 1.0000000e+00 0.0000000e+00 

CELLS 38 266
6 0 5 4 2 3 1
6 79 89 85 84 87 82
6 62 52 55 57 53 58
6 85 89 98 87 93 91
6 79 85 75 82 80 76
6 55 52 45 53 49 50
6 75 85 81 80 83 78
6 79 75 69 76 71 74
6 45 52 42 49 47 44
6 55 45 48 50 46 51
6 69 75 65 71 70 66
6 65 75 72 70 73 68
6 69 65 59 66 61 64
6 59 65 55 61 60 56
6 37 48 45 43 46 41
6 100 90 98 95 94 99
6 26 18 11 21 13 19
6 11 18 4 13 10 6
6 26 11 24 19 17 23
6 24 11 15 17 12 20
6 26 24 33 23 28 29
6 33 24 35 28 30 34
6 35 24 27 30 25 31
6 33 35 42 34 39 38
6 42 35 45 39 40 44
6 45 35 37 40 36 41
6 15 27 24 22 25 20
6 96 98 89 97 93 92
6 81 72 75 77 73 78
6 14 4 18 8 10 16
6 5 15 11 9 12 7
6 48 59 55 54 56 51
6 90 81 85 86 83 88
6 27 37 35 32 36 31
6 72 62 65 67 63 68
6 62 55 65 58 60 63
6 90 85 98 88 91 94
6 5 11 4 7 6 3

CELL_TYPES 38
22
22
22
22
22
22
22
22
22
22
22
22
22
22
22
22
22
22
22
22
22
22
22
22
22
22
22
22
22
22
22
22
22
22
22
22
22
22
POINT_DATA 101
FIELD FieldData 1
DISPLACEMENT 3 101  float
0.0000000e+00 0.0000000e+00 0.0000000e+00 
0.0000000e+00 0.0000000e+00 0.0000000e+00 
0.0000000e+00 0.0000000e+00 0.0000000e+00 
-2.1223400e-06 2.1599615e-06 0.0000000e+00 
0.0000000e+00 0.0000000e+00 0.0000000e+00 
0.0000000e+00 0.0000000e+00 0.0000000e+00 
-3.9567167e-06 7.9568290e-06 0.0000000e+00 
-1.0602570e-05 7.5603662e-06 0.0000000e+00 
0.0000000e+00 0.0000000e+00 0.0000000e+00 
0.0000000e+00 0.0000000e+00 0.0000000e+00 
-2.8387246e-06 6.3328057e-06 0.0000000e+00 
-1.2871914e-05 2.1475787e-05 0.0000000e+00 
-2.5427911e-05 1.0160379e-05 0.0000000e+00 
-5.2067617e-06 2.1762266e-05 0.0000000e+00 
0.0000000e+00 0.0000000e+00 0.0000000e+00 
0.0000000e+00 0.0000000e+00 0.0000000e+00 
-6.7213509e-06 7.0353799e-06 0.0000000e+00 
-2.6352414e-05 3.1794338e-05 0.0000000e+00 
-1.0247274e-05 1.7457351e-05 0.0000000e+00 
-3.5356320e-06 3.4597997e-05 0.0000000e+00 
-5.8679092e-05 1.0873995e-05 0.0000000e+00 
-4.3935825e-06 2.9087389e-05 0.0000000e+00 
0.0000000e+00 0.0000000e+00 0.0000000e+00 
7.0732144e-06 4.6840996e-05 0.0000000e+00 
-4.8059916e-05 3.4630080e-05 0.0000000e+00 
-1.1378571e-04 -9.0924850e-06 0.0000000e+00 
1.1893434e-05 3.9631766e-05 0.0000000e+00 
0.0000000e+00 0.0000000e+00 0.0000000e+00 
2.4721347e-05 3.1401916e-05 0.0000000e+00 
6.6143715e-05 3.7679001e-05 0.0000000e+00 
-1.0137346e-04 -1.3246688e-05 0.0000000e+00 
-2.0274264e-04 -7.2054623e-05 0.0000000e+00 
0.0000000e+00 0.0000000e+00 0.0000000e+00 
1.6105156e-04 -9.2656610e-06 0.0000000e+00 
4.8020367e-05 -5.4697084e-05 0.0000000e+00 
-1.9183451e-04 -1.6764252e-04 0.0000000e+00 
-3.2723849e-04 -2.2807068e-04 0.0000000e+00 
0.0000000e+00 0.0000000e+00 0.0000000e+00 
3.8068133e-04 -1.8484166e-04 0.0000000e+00 
6.3927233e-05 -3.2693049e-04 0.0000000e+00 
-3.5173947e-04 -5.5795675e-04 0.0000000e+00 
-4.5609139e-04 -5.4203178e-04 0.0000000e+00 
6.9576915e-04 -6.2884419e-04 0.0000000e+00 
0.0000000e+00 0.0000000e+00 0.0000000e+00 
2.2784057e-05 -1.0077117e-03 0.0000000e+00 
-5.5945537e-04 -1.3933700e-03 0.0000000e+00 
-4.8023966e-04 -1.0058235e-03 0.0000000e+00 
1.1298331e-03 -1.7440312e-03 0.0000000e+00 
0.0000000e+00 0.0000000e+00 0.0000000e+00 
-1.3820273e-04 -2.5527861e-03 0.0000000e+00 
-5.2971888e-04 -2.6801883e-03 0.0000000e+00 
-2.5270245e-04 -1.4067646e-03 0.0000000e+00 
1.3329478e-03 -4.4332813e-03 0.0000000e+00 
-2.7124133e-04 -4.9637347e-03 0.0000000e+00 
0.0000000e+00 0.0000000e+00 0.0000000e+00 
-2.0826223e-05 -3.4873050e-03 0.0000000e+00 
1.4236085e-04 -1.4206335e-03 0.0000000e+00 
1.8279070e-05 -8.4312763e-03 0.0000000e+00 
3.7285959e-04 -4.7483784e-03 0.0000000e+00 
0.0000000e+00 0.0000000e+00 0.0000000e+00 
3.9421488e-04 -2.3242505e-03 0.0000000e+00 
2.5142357e-04 -8.4625260e-04 0.0000000e+00 
-1.0919988e-03 -3.6579871e-03 0.0000000e+00 
2.5248801e-04 -2.3810735e-03 0.0000000e+00 
0.0000000e+00 0.0000000e+00 0.0000000e+00 
3.8600143e-04 -1.4019250e-03 0.0000000e+00 
2.4924660e-04 -6.3604419e-04 0.0000000e+00 
-6.9872022e-04 -2.0711750e-03 0.0000000e+00 
1.9254994e-05 -1.6290946e-03 0.0000000e+00 
0.0000000e+00 0.0000000e+00 0.0000000e+00 
2.3488043e-04 -1.0562849e-03 0.0000000e+00 
2.1198849e-04 -4.9256213e-04 0.0000000e+00 
-2.8556475e-04 -2.0115753e-03 0.0000000e+00 
-5.9683003e-05 -1.6853007e-03 0.0000000e+00 
0.0000000e+00 0.0000000e+00 0.0000000e+00 
2.4805014e-04 -9.1947260e-04 0.0000000e+00 
2.2260236e-04 -3.7499107e-04 0.0000000e+00 
-4.0198409e-04 -2.8352332e-03 0.0000000e+00 
1.4151417e-04 -1.3685556e-03 0.0000000e+00 
0.0000000e+00 0.0000000e+00 0.0000000e+00 
2.9270272e-04 -6.2023458e-04 0.0000000e+00 
-5.5907696e-04 -1.1763137e-03 0.0000000e+00 
2.2185000e-04 -2.5207084e-04 0.0000000e+00 
4.8486560e-05 -5.9751538e-04 0.0000000e+00 
0.0000000e+00 0.0000000e+00 0.0000000e+00 
2.1417235e-04 -2.7667044e-04 0.0000000e+00 
-3.9616239e-04 -4.4013164e-04 0.0000000e+00 
1.5731064e-04 -1.1843998e-04 0.0000000e+00 
1.1070001e-05 -2.0114548e-04 0.0000000e+00 
0.0000000e+00 0.0000000e+00 0.0000000e+00 
-2.1118255e-04 -1.2612072e-04 0.0000000e+00 
9.0213362e-05 -4.6926012e-05 0.0000000e+00 
0.0000000e+00 0.0000000e+00 0.0000000e+00 
5.9015732e-05 -2.3710865e-05 0.0000000e+00 
-7.5607463e-06 -7.4659010e-06 0.0000000e+00 
-9.2639297e-05 -2.2490405e-05 0.0000000e+00 
0.0000000e+00 0.0000000e+00 0.0000000e+00 
0.0000000e+00 0.0000000e+00 0.0000000e+00 
0.0000000e+00 0.0000000e+00 0.0000000e+00 
0.0000000e+00 0.0000000e+00 0.0000000e+00 
0.0000000e+00 0.0000000e+00 0.0000000e+00 
CELL_DATA 38
FIELD FieldData 0
