# vtk DataFile Version 4.0
vtk output
ASCII
DATASET UNSTRUCTURED_GRID
POINTS 101 float
0.0000000e+00 0.0000000e+00 0.0000000e+00 
0.0000000e+00 2.5000000e-01 0.0000000e+00 
2.5000000e-01 0.0000000e+00 0.0000000e+00 
2.5000000e-01 2.5000000e-01 0.0000000e+00 
0.0000000e+00 5.0000000e-01 0.0000000e+00 
5.0000000e-01 0.0000000e+00 0.0000000e+00 
3.5416666e-01 5.0558227e-01 0.0000000e+00 
6.0416669e-01 2.5558227e-01 0.0000000e+00 
0.0000000e+00 7.5000000e-01 0.0000000e+00 
7.5000000e-01 0.0000000e+00 0.0000000e+00 
2.5000000e-01 7.5000000e-01 0.0000000e+00 
7.0833331e-01 5.1116455e-01 0.0000000e+00 
8.5416669e-01 2.5558227e-01 0.0000000e+00 
6.0416669e-01 7.5558227e-01 0.0000000e+00 
0.0000000e+00 1.0000000e+00 0.0000000e+00 
1.0000000e+00 0.0000000e+00 0.0000000e+00 
2.5000000e-01 1.0000000e+00 0.0000000e+00 
9.7916669e-01 5.3907591e-01 0.0000000e+00 
5.0000000e-01 1.0000000e+00 0.0000000e+00 
8.5416669e-01 7.5558227e-01 0.0000000e+00 
1.1250000e+00 2.8349364e-01 0.0000000e+00 
7.5000000e-01 1.0000000e+00 0.0000000e+00 
1.2500000e+00 0.0000000e+00 0.0000000e+00 
1.1250000e+00 7.8349364e-01 0.0000000e+00 
1.2500000e+00 5.6698728e-01 0.0000000e+00 
1.3750000e+00 2.8349364e-01 0.0000000e+00 
1.0000000e+00 1.0000000e+00 0.0000000e+00 
1.5000000e+00 0.0000000e+00 0.0000000e+00 
1.3750000e+00 7.8349364e-01 0.0000000e+00 
1.2500000e+00 1.0000000e+00 0.0000000e+00 
1.5000000e+00 5.6698728e-01 0.0000000e+00 
1.6250000e+00 2.8349364e-01 0.0000000e+00 
1.7500000e+00 0.0000000e+00 0.0000000e+00 
1.5000000e+00 1.0000000e+00 0.0000000e+00 
1.6250000e+00 7.8349364e-01 0.0000000e+00 
1.7500000e+00 5.6698728e-01 0.0000000e+00 
1.8750000e+00 2.8349364e-01 0.0000000e+00 
2.0000000e+00 0.0000000e+00 0.0000000e+00 
1.7500000e+00 1.0000000e+00 0.0000000e+00 
1.8750000e+00 7.8349364e-01 0.0000000e+00 
2.0000000e+00 5.6698728e-01 0.0000000e+00 
2.1250000e+00 2.8349364e-01 0.0000000e+00 
2.0000000e+00 1.0000000e+00 0.0000000e+00 
2.2500000e+00 0.0000000e+00 0.0000000e+00 
2.1250000e+00 7.8349364e-01 0.0000000e+00 
2.2500000e+00 5.6698728e-01 0.0000000e+00 
2.3750000e+00 2.8349364e-01 0.0000000e+00 
2.2500000e+00 1.0000000e+00 0.0000000e+00 
2.5000000e+00 0.0000000e+00 0.0000000e+00 
2.3750000e+00 7.8349364e-01 0.0000000e+00 
2.5000000e+00 5.6698728e-01 0.0000000e+00 
2.6250000e+00 2.8349364e-01 0.0000000e+00 
2.5000000e+00 1.0000000e+00 0.0000000e+00 
2.6250000e+00 7.8349364e-01 0.0000000e+00 
2.7500000e+00 0.0000000e+00 0.0000000e+00 
2.7500000e+00 5.6698728e-01 0.0000000e+00 
2.8750000e+00 2.8349364e-01 0.0000000e+00 
2.7500000e+00 1.0000000e+00 0.0000000e+00 
2.8750000e+00 7.8349364e-01 0.0000000e+00 
3.0000000e+00 0.0000000e+00 0.0000000e+00 
3.0000000e+00 5.0000000e-01 0.0000000e+00 
3.1250000e+00 2.1650635e-01 0.0000000e+00 
3.0000000e+00 1.0000000e+00 0.0000000e+00 
3.1250000e+00 7.1650636e-01 0.0000000e+00 
3.2500000e+00 0.0000000e+00 0.0000000e+00 
3.2500000e+00 4.3301269e-01 0.0000000e+00 
3.3750000e+00 2.1650635e-01 0.0000000e+00 
3.2500000e+00 1.0000000e+00 0.0000000e+00 
3.3750000e+00 7.1650636e-01 0.0000000e+00 
3.5000000e+00 0.0000000e+00 0.0000000e+00 
3.5000000e+00 4.3301269e-01 0.0000000e+00 
3.6250000e+00 2.1650635e-01 0.0000000e+00 
3.5000000e+00 1.0000000e+00 0.0000000e+00 
3.6250000e+00 7.1650636e-01 0.0000000e+00 
3.7500000e+00 0.0000000e+00 0.0000000e+00 
3.7500000e+00 4.3301269e-01 0.0000000e+00 
3.8750000e+00 2.1650635e-01 0.0000000e+00 
3.7500000e+00 1.0000000e+00 0.0000000e+00 
3.8750000e+00 7.1650636e-01 0.0000000e+00 
4.0000000e+00 0.0000000e+00 0.0000000e+00 
4.0208335e+00 4.6092409e-01 0.0000000e+00 
4.0000000e+00 1.0000000e+00 0.0000000e+00 
4.1458335e+00 2.4441773e-01 0.0000000e+00 
4.1458335e+00 7.4441773e-01 0.0000000e+00 
4.2500000e+00 0.0000000e+00 0.0000000e+00 
4.2916665e+00 4.8883545e-01 0.0000000e+00 
4.2500000e+00 1.0000000e+00 0.0000000e+00 
4.3958335e+00 2.4441773e-01 0.0000000e+00 
4.3958335e+00 7.4441773e-01 0.0000000e+00 
4.5000000e+00 0.0000000e+00 0.0000000e+00 
4.5000000e+00 1.0000000e+00 0.0000000e+00 
4.6458335e+00 4.9441773e-01 0.0000000e+00 
4.7500000e+00 0.0000000e+00 0.0000000e+00 
4.7500000e+00 2.5000000e-01 0.0000000e+00 
4.7500000e+00 7.5000000e-01 0.0000000e+00 
4.7500000e+00 1.0000000e+00 0.0000000e+00 
5.0000000e+00 0.0000000e+00 0.0000000e+00 
5.0000000e+00 2.5000000e-01 0.0000000e+00 
5.0000000e+00 5.0000000e-01 0.0000000e+00 
5.0000000e+00 7.5000000e-01 0.0000000e+00 
5.0000000e+00 1.0000000e+00 0.0000000e+00 

CELLS 38 266
6 0 5 4 2 3 1
6 79 89 85 84 87 82
6 62 52 55 57 53 58
6 85 89 98 87 93 91
6 79 85 75 82 80 76
6 55 52 45 53 49 50
6 75 85 81 80 83 78
6 79 75 69 76 71 74
6 45 52 42 49 47 44
6 55 45 48 50 46 51
6 69 75 65 71 70 66
6 65 75 72 70 73 68
6 69 65 59 66 61 64
6 59 65 55 61 60 56
6 37 48 45 43 46 41
6 100 90 98 95 94 99
6 26 18 11 21 13 19
6 11 18 4 13 10 6
6 26 11 24 19 17 23
6 24 11 15 17 12 20
6 26 24 33 23 28 29
6 33 24 35 28 30 34
6 35 24 27 30 25 31
6 33 35 42 34 39 38
6 42 35 45 39 40 44
6 45 35 37 40 36 41
6 15 27 24 22 25 20
6 96 98 89 97 93 92
6 81 72 75 77 73 78
6 14 4 18 8 10 16
6 5 15 11 9 12 7
6 48 59 55 54 56 51
6 90 81 85 86 83 88
6 27 37 35 32 36 31
6 72 62 65 67 63 68
6 62 55 65 58 60 63
6 90 85 98 88 91 94
6 5 11 4 7 6 3

CELL_TYPES 38
22
22
22
22
22
22
22
22
22
22
22
22
22
22
22
22
22
22
22
22
22
22
22
22
22
22
22
22
22
22
22
22
22
22
22
22
22
22
POINT_DATA 101
FIELD FieldData 1
DISPLACEMENT 3 101  float
0.0000000e+00 0.0000000e+00 0.0000000e+00 
0.0000000e+00 0.0000000e+00 0.0000000e+00 
0.0000000e+00 0.0000000e+00 0.0000000e+00 
-5.5928354e-07 -2.2623887e-07 0.0000000e+00 
0.0000000e+00 0.0000000e+00 0.0000000e+00 
0.0000000e+00 0.0000000e+00 0.0000000e+00 
-1.6978014e-06 -1.6041579e-07 0.0000000e+00 
-1.4317594e-06 1.1458225e-07 0.0000000e+00 
0.0000000e+00 0.0000000e+00 0.0000000e+00 
0.0000000e+00 0.0000000e+00 0.0000000e+00 
-1.8342222e-06 1.6648916e-09 0.0000000e+00 
-3.6295444e-06 9.7319412e-07 0.0000000e+00 
-2.3175958e-06 8.5050698e-07 0.0000000e+00 
-4.7307835e-06 9.2667466e-07 0.0000000e+00 
0.0000000e+00 0.0000000e+00 0.0000000e+00 
0.0000000e+00 0.0000000e+00 0.0000000e+00 
-2.3926698e-06 4.8911329e-07 0.0000000e+00 
-5.5975806e-06 3.3198833e-06 0.0000000e+00 
-5.0907583e-06 1.1148584e-06 0.0000000e+00 
-6.8962358e-06 2.7114158e-06 0.0000000e+00 
-4.4345284e-06 2.7993842e-06 0.0000000e+00 
-8.2676333e-06 2.5149832e-06 0.0000000e+00 
0.0000000e+00 0.0000000e+00 0.0000000e+00 
-9.6214835e-06 6.9756693e-06 0.0000000e+00 
-8.2482293e-06 8.5216807e-06 0.0000000e+00 
-8.1125472e-06 5.4933275e-06 0.0000000e+00 
-1.1774675e-05 5.3263548e-06 0.0000000e+00 
0.0000000e+00 0.0000000e+00 0.0000000e+00 
-1.1273542e-05 1.3632870e-05 0.0000000e+00 
-1.5035021e-05 1.0654563e-05 0.0000000e+00 
-1.1831959e-05 1.5447184e-05 0.0000000e+00 
-1.5794720e-05 9.3593844e-06 0.0000000e+00 
0.0000000e+00 0.0000000e+00 0.0000000e+00 
-1.6941442e-05 1.8736187e-05 0.0000000e+00 
-1.1413097e-05 2.4514007e-05 0.0000000e+00 
-1.8028697e-05 2.6764350e-05 0.0000000e+00 
-3.2081189e-05 1.2402576e-05 0.0000000e+00 
0.0000000e+00 0.0000000e+00 0.0000000e+00 
-1.1224704e-05 3.0549185e-05 0.0000000e+00 
-8.2215820e-06 3.7167370e-05 0.0000000e+00 
-3.1473188e-05 3.4621109e-05 0.0000000e+00 
-6.3100277e-05 1.0608410e-05 0.0000000e+00 
5.1353140e-06 4.0746516e-05 0.0000000e+00 
0.0000000e+00 0.0000000e+00 0.0000000e+00 
4.9182540e-07 4.7519236e-05 0.0000000e+00 
-5.6437821e-05 3.4600922e-05 0.0000000e+00 
-1.1998421e-04 -1.0769391e-05 0.0000000e+00 
6.0201186e-05 3.8433442e-05 0.0000000e+00 
0.0000000e+00 0.0000000e+00 0.0000000e+00 
1.7162749e-05 3.1585816e-05 0.0000000e+00 
-1.1376579e-04 -1.6076408e-05 0.0000000e+00 
-2.1051883e-04 -7.7303775e-05 0.0000000e+00 
1.5671151e-04 -9.2897108e-06 0.0000000e+00 
3.8884507e-05 -5.7826084e-05 0.0000000e+00 
0.0000000e+00 0.0000000e+00 0.0000000e+00 
-2.1224335e-04 -1.8164919e-04 0.0000000e+00 
-3.3300321e-04 -2.3361627e-04 0.0000000e+00 
3.8777941e-04 -1.9060673e-04 0.0000000e+00 
4.9115159e-05 -3.4010204e-04 0.0000000e+00 
0.0000000e+00 0.0000000e+00 0.0000000e+00 
-4.0656672e-04 -5.4050231e-04 0.0000000e+00 
-3.9770812e-04 -4.3111743e-04 0.0000000e+00 
7.2636310e-04 -6.4652000e-04 0.0000000e+00 
-1.8561413e-04 -1.0268185e-03 0.0000000e+00 
0.0000000e+00 0.0000000e+00 0.0000000e+00 
-5.9176894e-04 -1.1345814e-03 0.0000000e+00 
-3.9978608e-04 -7.6554372e-04 0.0000000e+00 
1.0322332e-03 -1.8330204e-03 0.0000000e+00 
-3.4742683e-04 -2.4282481e-03 0.0000000e+00 
0.0000000e+00 0.0000000e+00 0.0000000e+00 
-5.1404000e-04 -1.9740846e-03 0.0000000e+00 
-1.9661171e-04 -1.0292651e-03 0.0000000e+00 
1.0909543e-03 -4.5332075e-03 0.0000000e+00 
-3.3473404e-04 -4.3133455e-03 0.0000000e+00 
0.0000000e+00 0.0000000e+00 0.0000000e+00 
-4.2715910e-05 -2.4151965e-03 0.0000000e+00 
1.2284814e-04 -1.0192435e-03 0.0000000e+00 
-7.2669289e-05 -8.1428587e-03 0.0000000e+00 
3.3663411e-04 -4.1083088e-03 0.0000000e+00 
0.0000000e+00 0.0000000e+00 0.0000000e+00 
4.1757766e-04 -1.9915574e-03 0.0000000e+00 
-1.1133704e-03 -3.7368611e-03 0.0000000e+00 
3.1852143e-04 -8.6047273e-04 0.0000000e+00 
8.5841930e-05 -2.1948484e-03 0.0000000e+00 
0.0000000e+00 0.0000000e+00 0.0000000e+00 
3.6423039e-04 -1.2202831e-03 0.0000000e+00 
-8.6538360e-04 -1.8944277e-03 0.0000000e+00 
2.6678928e-04 -5.6684139e-04 0.0000000e+00 
-8.4019230e-05 -1.3671838e-03 0.0000000e+00 
0.0000000e+00 0.0000000e+00 0.0000000e+00 
-5.2641251e-04 -1.6624478e-03 0.0000000e+00 
1.2794377e-04 -7.2115619e-04 0.0000000e+00 
0.0000000e+00 0.0000000e+00 0.0000000e+00 
1.5755287e-04 -2.5920293e-04 0.0000000e+00 
-7.1912764e-05 -1.0290276e-03 0.0000000e+00 
-2.2617607e-04 -1.9598771e-03 0.0000000e+00 
0.0000000e+00 0.0000000e+00 0.0000000e+00 
0.0000000e+00 0.0000000e+00 0.0000000e+00 
0.0000000e+00 0.0000000e+00 0.0000000e+00 
0.0000000e+00 0.0000000e+00 0.0000000e+00 
0.0000000e+00 0.0000000e+00 0.0000000e+00 
CELL_DATA 38
FIELD FieldData 0
