# vtk DataFile Version 4.0
vtk output
ASCII
DATASET UNSTRUCTURED_GRID
POINTS 101 float
0.0000000e+00 0.0000000e+00 0.0000000e+00 
0.0000000e+00 2.5000000e-01 0.0000000e+00 
2.5000000e-01 0.0000000e+00 0.0000000e+00 
2.5000000e-01 2.5000000e-01 0.0000000e+00 
0.0000000e+00 5.0000000e-01 0.0000000e+00 
5.0000000e-01 0.0000000e+00 0.0000000e+00 
3.5416666e-01 5.0558227e-01 0.0000000e+00 
6.0416669e-01 2.5558227e-01 0.0000000e+00 
0.0000000e+00 7.5000000e-01 0.0000000e+00 
7.5000000e-01 0.0000000e+00 0.0000000e+00 
2.5000000e-01 7.5000000e-01 0.0000000e+00 
7.0833331e-01 5.1116455e-01 0.0000000e+00 
8.5416669e-01 2.5558227e-01 0.0000000e+00 
6.0416669e-01 7.5558227e-01 0.0000000e+00 
0.0000000e+00 1.0000000e+00 0.0000000e+00 
1.0000000e+00 0.0000000e+00 0.0000000e+00 
2.5000000e-01 1.0000000e+00 0.0000000e+00 
9.7916669e-01 5.3907591e-01 0.0000000e+00 
5.0000000e-01 1.0000000e+00 0.0000000e+00 
8.5416669e-01 7.5558227e-01 0.0000000e+00 
1.1250000e+00 2.8349364e-01 0.0000000e+00 
7.5000000e-01 1.0000000e+00 0.0000000e+00 
1.2500000e+00 0.0000000e+00 0.0000000e+00 
1.1250000e+00 7.8349364e-01 0.0000000e+00 
1.2500000e+00 5.6698728e-01 0.0000000e+00 
1.3750000e+00 2.8349364e-01 0.0000000e+00 
1.0000000e+00 1.0000000e+00 0.0000000e+00 
1.5000000e+00 0.0000000e+00 0.0000000e+00 
1.3750000e+00 7.8349364e-01 0.0000000e+00 
1.2500000e+00 1.0000000e+00 0.0000000e+00 
1.5000000e+00 5.6698728e-01 0.0000000e+00 
1.6250000e+00 2.8349364e-01 0.0000000e+00 
1.7500000e+00 0.0000000e+00 0.0000000e+00 
1.5000000e+00 1.0000000e+00 0.0000000e+00 
1.6250000e+00 7.8349364e-01 0.0000000e+00 
1.7500000e+00 5.6698728e-01 0.0000000e+00 
1.8750000e+00 2.8349364e-01 0.0000000e+00 
2.0000000e+00 0.0000000e+00 0.0000000e+00 
1.7500000e+00 1.0000000e+00 0.0000000e+00 
1.8750000e+00 7.8349364e-01 0.0000000e+00 
2.0000000e+00 5.6698728e-01 0.0000000e+00 
2.1250000e+00 2.8349364e-01 0.0000000e+00 
2.0000000e+00 1.0000000e+00 0.0000000e+00 
2.2500000e+00 0.0000000e+00 0.0000000e+00 
2.1250000e+00 7.8349364e-01 0.0000000e+00 
2.2500000e+00 5.6698728e-01 0.0000000e+00 
2.3750000e+00 2.8349364e-01 0.0000000e+00 
2.2500000e+00 1.0000000e+00 0.0000000e+00 
2.5000000e+00 0.0000000e+00 0.0000000e+00 
2.3750000e+00 7.8349364e-01 0.0000000e+00 
2.5000000e+00 5.6698728e-01 0.0000000e+00 
2.6250000e+00 2.8349364e-01 0.0000000e+00 
2.5000000e+00 1.0000000e+00 0.0000000e+00 
2.6250000e+00 7.8349364e-01 0.0000000e+00 
2.7500000e+00 0.0000000e+00 0.0000000e+00 
2.7500000e+00 5.6698728e-01 0.0000000e+00 
2.8750000e+00 2.8349364e-01 0.0000000e+00 
2.7500000e+00 1.0000000e+00 0.0000000e+00 
2.8750000e+00 7.8349364e-01 0.0000000e+00 
3.0000000e+00 0.0000000e+00 0.0000000e+00 
3.0000000e+00 5.0000000e-01 0.0000000e+00 
3.1250000e+00 2.1650635e-01 0.0000000e+00 
3.0000000e+00 1.0000000e+00 0.0000000e+00 
3.1250000e+00 7.1650636e-01 0.0000000e+00 
3.2500000e+00 0.0000000e+00 0.0000000e+00 
3.2500000e+00 4.3301269e-01 0.0000000e+00 
3.3750000e+00 2.1650635e-01 0.0000000e+00 
3.2500000e+00 1.0000000e+00 0.0000000e+00 
3.3750000e+00 7.1650636e-01 0.0000000e+00 
3.5000000e+00 0.0000000e+00 0.0000000e+00 
3.5000000e+00 4.3301269e-01 0.0000000e+00 
3.6250000e+00 2.1650635e-01 0.0000000e+00 
3.5000000e+00 1.0000000e+00 0.0000000e+00 
3.6250000e+00 7.1650636e-01 0.0000000e+00 
3.7500000e+00 0.0000000e+00 0.0000000e+00 
3.7500000e+00 4.3301269e-01 0.0000000e+00 
3.8750000e+00 2.1650635e-01 0.0000000e+00 
3.7500000e+00 1.0000000e+00 0.0000000e+00 
3.8750000e+00 7.1650636e-01 0.0000000e+00 
4.0000000e+00 0.0000000e+00 0.0000000e+00 
4.0208335e+00 4.6092409e-01 0.0000000e+00 
4.0000000e+00 1.0000000e+00 0.0000000e+00 
4.1458335e+00 2.4441773e-01 0.0000000e+00 
4.1458335e+00 7.4441773e-01 0.0000000e+00 
4.2500000e+00 0.0000000e+00 0.0000000e+00 
4.2916665e+00 4.8883545e-01 0.0000000e+00 
4.2500000e+00 1.0000000e+00 0.0000000e+00 
4.3958335e+00 2.4441773e-01 0.0000000e+00 
4.3958335e+00 7.4441773e-01 0.0000000e+00 
4.5000000e+00 0.0000000e+00 0.0000000e+00 
4.5000000e+00 1.0000000e+00 0.0000000e+00 
4.6458335e+00 4.9441773e-01 0.0000000e+00 
4.7500000e+00 0.0000000e+00 0.0000000e+00 
4.7500000e+00 2.5000000e-01 0.0000000e+00 
4.7500000e+00 7.5000000e-01 0.0000000e+00 
4.7500000e+00 1.0000000e+00 0.0000000e+00 
5.0000000e+00 0.0000000e+00 0.0000000e+00 
5.0000000e+00 2.5000000e-01 0.0000000e+00 
5.0000000e+00 5.0000000e-01 0.0000000e+00 
5.0000000e+00 7.5000000e-01 0.0000000e+00 
5.0000000e+00 1.0000000e+00 0.0000000e+00 

CELLS 38 266
6 0 5 4 2 3 1
6 79 89 85 84 87 82
6 62 52 55 57 53 58
6 85 89 98 87 93 91
6 79 85 75 82 80 76
6 55 52 45 53 49 50
6 75 85 81 80 83 78
6 79 75 69 76 71 74
6 45 52 42 49 47 44
6 55 45 48 50 46 51
6 69 75 65 71 70 66
6 65 75 72 70 73 68
6 69 65 59 66 61 64
6 59 65 55 61 60 56
6 37 48 45 43 46 41
6 100 90 98 95 94 99
6 26 18 11 21 13 19
6 11 18 4 13 10 6
6 26 11 24 19 17 23
6 24 11 15 17 12 20
6 26 24 33 23 28 29
6 33 24 35 28 30 34
6 35 24 27 30 25 31
6 33 35 42 34 39 38
6 42 35 45 39 40 44
6 45 35 37 40 36 41
6 15 27 24 22 25 20
6 96 98 89 97 93 92
6 81 72 75 77 73 78
6 14 4 18 8 10 16
6 5 15 11 9 12 7
6 48 59 55 54 56 51
6 90 81 85 86 83 88
6 27 37 35 32 36 31
6 72 62 65 67 63 68
6 62 55 65 58 60 63
6 90 85 98 88 91 94
6 5 11 4 7 6 3

CELL_TYPES 38
22
22
22
22
22
22
22
22
22
22
22
22
22
22
22
22
22
22
22
22
22
22
22
22
22
22
22
22
22
22
22
22
22
22
22
22
22
22
POINT_DATA 101
FIELD FieldData 1
DISPLACEMENT 3 101  float
0.0000000e+00 0.0000000e+00 0.0000000e+00 
0.0000000e+00 0.0000000e+00 0.0000000e+00 
0.0000000e+00 0.0000000e+00 0.0000000e+00 
-6.3797421e-07 -1.1563550e-07 0.0000000e+00 
0.0000000e+00 0.0000000e+00 0.0000000e+00 
0.0000000e+00 0.0000000e+00 0.0000000e+00 
-2.0285465e-06 2.9034504e-07 0.0000000e+00 
-1.8560701e-06 7.7380201e-07 0.0000000e+00 
0.0000000e+00 0.0000000e+00 0.0000000e+00 
0.0000000e+00 0.0000000e+00 0.0000000e+00 
-2.3373043e-06 3.2490246e-07 0.0000000e+00 
-4.5089173e-06 2.8235556e-06 0.0000000e+00 
-3.4677830e-06 2.1601104e-06 0.0000000e+00 
-5.8898468e-06 2.5727124e-06 0.0000000e+00 
0.0000000e+00 0.0000000e+00 0.0000000e+00 
0.0000000e+00 0.0000000e+00 0.0000000e+00 
-3.3608044e-06 9.6990300e-07 0.0000000e+00 
-7.2036573e-06 7.2039384e-06 0.0000000e+00 
-6.9803245e-06 2.4320932e-06 0.0000000e+00 
-8.3088826e-06 6.1018941e-06 0.0000000e+00 
-7.5552130e-06 5.5179785e-06 0.0000000e+00 
-1.0872470e-05 5.2613218e-06 0.0000000e+00 
0.0000000e+00 0.0000000e+00 0.0000000e+00 
-1.0871644e-05 1.3670797e-05 0.0000000e+00 
-1.1060968e-05 1.6017293e-05 0.0000000e+00 
-1.5200652e-05 9.2711389e-06 0.0000000e+00 
-1.4680613e-05 1.0313561e-05 0.0000000e+00 
0.0000000e+00 0.0000000e+00 0.0000000e+00 
-1.1207578e-05 2.4040228e-05 0.0000000e+00 
-1.6240687e-05 1.9017134e-05 0.0000000e+00 
-1.7583543e-05 2.5601976e-05 0.0000000e+00 
-3.0752944e-05 1.3213903e-05 0.0000000e+00 
0.0000000e+00 0.0000000e+00 0.0000000e+00 
-1.3545495e-05 3.0279843e-05 0.0000000e+00 
-8.3496952e-06 3.8496044e-05 0.0000000e+00 
-2.9502728e-05 3.8234437e-05 0.0000000e+00 
-6.2001738e-05 1.1702021e-05 0.0000000e+00 
0.0000000e+00 0.0000000e+00 0.0000000e+00 
6.9156163e-06 4.2619053e-05 0.0000000e+00 
4.3408428e-07 4.8512167e-05 0.0000000e+00 
-5.6280860e-05 3.5075012e-05 0.0000000e+00 
-1.1782572e-04 -6.0079706e-06 0.0000000e+00 
4.9036240e-05 4.2059699e-05 0.0000000e+00 
0.0000000e+00 0.0000000e+00 0.0000000e+00 
1.7165061e-05 3.8815037e-05 0.0000000e+00 
-1.0468603e-04 -2.7126428e-06 0.0000000e+00 
-2.1122667e-04 -7.1277653e-05 0.0000000e+00 
1.6307038e-04 -2.5629474e-06 0.0000000e+00 
0.0000000e+00 0.0000000e+00 0.0000000e+00 
4.1720607e-05 -4.3231194e-05 0.0000000e+00 
-2.1656687e-04 -1.5756248e-04 0.0000000e+00 
-3.4095815e-04 -2.3460806e-04 0.0000000e+00 
3.4562638e-04 -1.5829195e-04 0.0000000e+00 
6.0764021e-05 -3.0389137e-04 0.0000000e+00 
0.0000000e+00 0.0000000e+00 0.0000000e+00 
-4.0126336e-04 -5.7889055e-04 0.0000000e+00 
-4.6278010e-04 -5.5098516e-04 0.0000000e+00 
7.3289149e-04 -6.0576270e-04 0.0000000e+00 
2.8408067e-05 -9.5880916e-04 0.0000000e+00 
0.0000000e+00 0.0000000e+00 0.0000000e+00 
-5.7747675e-04 -1.3035026e-03 0.0000000e+00 
-3.7310779e-04 -7.4194738e-04 0.0000000e+00 
1.2521516e-03 -1.5461992e-03 0.0000000e+00 
-4.7213474e-04 -2.5005166e-03 0.0000000e+00 
0.0000000e+00 0.0000000e+00 0.0000000e+00 
-3.9845146e-04 -1.9293876e-03 0.0000000e+00 
-1.9370727e-04 -1.0420099e-03 0.0000000e+00 
1.0517624e-03 -4.8154937e-03 0.0000000e+00 
-4.9774576e-04 -4.8187738e-03 0.0000000e+00 
0.0000000e+00 0.0000000e+00 0.0000000e+00 
-3.1105188e-05 -2.4558383e-03 0.0000000e+00 
1.0414862e-04 -1.0484051e-03 0.0000000e+00 
-7.4403084e-05 -1.0197705e-02 0.0000000e+00 
5.2072387e-04 -4.5923032e-03 0.0000000e+00 
0.0000000e+00 0.0000000e+00 0.0000000e+00 
2.4676419e-04 -1.9039987e-03 0.0000000e+00 
2.3183982e-04 -8.0175541e-04 0.0000000e+00 
-9.1209862e-04 -3.9318269e-03 0.0000000e+00 
2.8952447e-04 -2.4047075e-03 0.0000000e+00 
0.0000000e+00 0.0000000e+00 0.0000000e+00 
3.0485319e-04 -1.3706452e-03 0.0000000e+00 
-7.8388862e-04 -1.8871707e-03 0.0000000e+00 
2.4307128e-04 -6.5816601e-04 0.0000000e+00 
-1.0527360e-04 -1.6136136e-03 0.0000000e+00 
0.0000000e+00 0.0000000e+00 0.0000000e+00 
2.2738360e-04 -1.1142943e-03 0.0000000e+00 
-4.0394723e-04 -2.0301098e-03 0.0000000e+00 
2.1817078e-04 -4.9075234e-04 0.0000000e+00 
-1.8704984e-04 -1.8610053e-03 0.0000000e+00 
0.0000000e+00 0.0000000e+00 0.0000000e+00 
-4.2854284e-04 -3.2195030e-03 0.0000000e+00 
2.2064152e-04 -6.8076502e-04 0.0000000e+00 
0.0000000e+00 0.0000000e+00 0.0000000e+00 
1.5260425e-04 -2.5469414e-04 0.0000000e+00 
1.4285005e-04 -8.2624902e-04 0.0000000e+00 
-5.3341017e-04 -9.2519441e-04 0.0000000e+00 
0.0000000e+00 0.0000000e+00 0.0000000e+00 
0.0000000e+00 0.0000000e+00 0.0000000e+00 
0.0000000e+00 0.0000000e+00 0.0000000e+00 
0.0000000e+00 0.0000000e+00 0.0000000e+00 
0.0000000e+00 0.0000000e+00 0.0000000e+00 
CELL_DATA 38
FIELD FieldData 0
