# vtk DataFile Version 4.0
vtk output
ASCII
DATASET UNSTRUCTURED_GRID
POINTS 101 float
0.0000000e+00 0.0000000e+00 0.0000000e+00 
0.0000000e+00 2.5000000e-01 0.0000000e+00 
2.5000000e-01 0.0000000e+00 0.0000000e+00 
2.5000000e-01 2.5000000e-01 0.0000000e+00 
0.0000000e+00 5.0000000e-01 0.0000000e+00 
5.0000000e-01 0.0000000e+00 0.0000000e+00 
3.5416666e-01 5.0558227e-01 0.0000000e+00 
6.0416669e-01 2.5558227e-01 0.0000000e+00 
0.0000000e+00 7.5000000e-01 0.0000000e+00 
7.5000000e-01 0.0000000e+00 0.0000000e+00 
2.5000000e-01 7.5000000e-01 0.0000000e+00 
7.0833331e-01 5.1116455e-01 0.0000000e+00 
8.5416669e-01 2.5558227e-01 0.0000000e+00 
6.0416669e-01 7.5558227e-01 0.0000000e+00 
0.0000000e+00 1.0000000e+00 0.0000000e+00 
1.0000000e+00 0.0000000e+00 0.0000000e+00 
2.5000000e-01 1.0000000e+00 0.0000000e+00 
9.7916669e-01 5.3907591e-01 0.0000000e+00 
5.0000000e-01 1.0000000e+00 0.0000000e+00 
8.5416669e-01 7.5558227e-01 0.0000000e+00 
1.1250000e+00 2.8349364e-01 0.0000000e+00 
7.5000000e-01 1.0000000e+00 0.0000000e+00 
1.2500000e+00 0.0000000e+00 0.0000000e+00 
1.1250000e+00 7.8349364e-01 0.0000000e+00 
1.2500000e+00 5.6698728e-01 0.0000000e+00 
1.3750000e+00 2.8349364e-01 0.0000000e+00 
1.0000000e+00 1.0000000e+00 0.0000000e+00 
1.5000000e+00 0.0000000e+00 0.0000000e+00 
1.3750000e+00 7.8349364e-01 0.0000000e+00 
1.2500000e+00 1.0000000e+00 0.0000000e+00 
1.5000000e+00 5.6698728e-01 0.0000000e+00 
1.6250000e+00 2.8349364e-01 0.0000000e+00 
1.7500000e+00 0.0000000e+00 0.0000000e+00 
1.5000000e+00 1.0000000e+00 0.0000000e+00 
1.6250000e+00 7.8349364e-01 0.0000000e+00 
1.7500000e+00 5.6698728e-01 0.0000000e+00 
1.8750000e+00 2.8349364e-01 0.0000000e+00 
2.0000000e+00 0.0000000e+00 0.0000000e+00 
1.7500000e+00 1.0000000e+00 0.0000000e+00 
1.8750000e+00 7.8349364e-01 0.0000000e+00 
2.0000000e+00 5.6698728e-01 0.0000000e+00 
2.1250000e+00 2.8349364e-01 0.0000000e+00 
2.0000000e+00 1.0000000e+00 0.0000000e+00 
2.2500000e+00 0.0000000e+00 0.0000000e+00 
2.1250000e+00 7.8349364e-01 0.0000000e+00 
2.2500000e+00 5.6698728e-01 0.0000000e+00 
2.3750000e+00 2.8349364e-01 0.0000000e+00 
2.2500000e+00 1.0000000e+00 0.0000000e+00 
2.5000000e+00 0.0000000e+00 0.0000000e+00 
2.3750000e+00 7.8349364e-01 0.0000000e+00 
2.5000000e+00 5.6698728e-01 0.0000000e+00 
2.6250000e+00 2.8349364e-01 0.0000000e+00 
2.5000000e+00 1.0000000e+00 0.0000000e+00 
2.6250000e+00 7.8349364e-01 0.0000000e+00 
2.7500000e+00 0.0000000e+00 0.0000000e+00 
2.7500000e+00 5.6698728e-01 0.0000000e+00 
2.8750000e+00 2.8349364e-01 0.0000000e+00 
2.7500000e+00 1.0000000e+00 0.0000000e+00 
2.8750000e+00 7.8349364e-01 0.0000000e+00 
3.0000000e+00 0.0000000e+00 0.0000000e+00 
3.0000000e+00 5.0000000e-01 0.0000000e+00 
3.1250000e+00 2.1650635e-01 0.0000000e+00 
3.0000000e+00 1.0000000e+00 0.0000000e+00 
3.1250000e+00 7.1650636e-01 0.0000000e+00 
3.2500000e+00 0.0000000e+00 0.0000000e+00 
3.2500000e+00 4.3301269e-01 0.0000000e+00 
3.3750000e+00 2.1650635e-01 0.0000000e+00 
3.2500000e+00 1.0000000e+00 0.0000000e+00 
3.3750000e+00 7.1650636e-01 0.0000000e+00 
3.5000000e+00 0.0000000e+00 0.0000000e+00 
3.5000000e+00 4.3301269e-01 0.0000000e+00 
3.6250000e+00 2.1650635e-01 0.0000000e+00 
3.5000000e+00 1.0000000e+00 0.0000000e+00 
3.6250000e+00 7.1650636e-01 0.0000000e+00 
3.7500000e+00 0.0000000e+00 0.0000000e+00 
3.7500000e+00 4.3301269e-01 0.0000000e+00 
3.8750000e+00 2.1650635e-01 0.0000000e+00 
3.7500000e+00 1.0000000e+00 0.0000000e+00 
3.8750000e+00 7.1650636e-01 0.0000000e+00 
4.0000000e+00 0.0000000e+00 0.0000000e+00 
4.0208335e+00 4.6092409e-01 0.0000000e+00 
4.0000000e+00 1.0000000e+00 0.0000000e+00 
4.1458335e+00 2.4441773e-01 0.0000000e+00 
4.1458335e+00 7.4441773e-01 0.0000000e+00 
4.2500000e+00 0.0000000e+00 0.0000000e+00 
4.2916665e+00 4.8883545e-01 0.0000000e+00 
4.2500000e+00 1.0000000e+00 0.0000000e+00 
4.3958335e+00 2.4441773e-01 0.0000000e+00 
4.3958335e+00 7.4441773e-01 0.0000000e+00 
4.5000000e+00 0.0000000e+00 0.0000000e+00 
4.5000000e+00 1.0000000e+00 0.0000000e+00 
4.6458335e+00 4.9441773e-01 0.0000000e+00 
4.7500000e+00 0.0000000e+00 0.0000000e+00 
4.7500000e+00 2.5000000e-01 0.0000000e+00 
4.7500000e+00 7.5000000e-01 0.0000000e+00 
4.7500000e+00 1.0000000e+00 0.0000000e+00 
5.0000000e+00 0.0000000e+00 0.0000000e+00 
5.0000000e+00 2.5000000e-01 0.0000000e+00 
5.0000000e+00 5.0000000e-01 0.0000000e+00 
5.0000000e+00 7.5000000e-01 0.0000000e+00 
5.0000000e+00 1.0000000e+00 0.0000000e+00 

CELLS 38 266
6 0 5 4 2 3 1
6 79 89 85 84 87 82
6 62 52 55 57 53 58
6 85 89 98 87 93 91
6 79 85 75 82 80 76
6 55 52 45 53 49 50
6 75 85 81 80 83 78
6 79 75 69 76 71 74
6 45 52 42 49 47 44
6 55 45 48 50 46 51
6 69 75 65 71 70 66
6 65 75 72 70 73 68
6 69 65 59 66 61 64
6 59 65 55 61 60 56
6 37 48 45 43 46 41
6 100 90 98 95 94 99
6 26 18 11 21 13 19
6 11 18 4 13 10 6
6 26 11 24 19 17 23
6 24 11 15 17 12 20
6 26 24 33 23 28 29
6 33 24 35 28 30 34
6 35 24 27 30 25 31
6 33 35 42 34 39 38
6 42 35 45 39 40 44
6 45 35 37 40 36 41
6 15 27 24 22 25 20
6 96 98 89 97 93 92
6 81 72 75 77 73 78
6 14 4 18 8 10 16
6 5 15 11 9 12 7
6 48 59 55 54 56 51
6 90 81 85 86 83 88
6 27 37 35 32 36 31
6 72 62 65 67 63 68
6 62 55 65 58 60 63
6 90 85 98 88 91 94
6 5 11 4 7 6 3

CELL_TYPES 38
22
22
22
22
22
22
22
22
22
22
22
22
22
22
22
22
22
22
22
22
22
22
22
22
22
22
22
22
22
22
22
22
22
22
22
22
22
22
POINT_DATA 101
FIELD FieldData 1
DISPLACEMENT 3 101  float
0.0000000e+00 0.0000000e+00 0.0000000e+00 
0.0000000e+00 0.0000000e+00 0.0000000e+00 
0.0000000e+00 0.0000000e+00 0.0000000e+00 
-9.9634155e-05 -3.0830204e-05 0.0000000e+00 
0.0000000e+00 0.0000000e+00 0.0000000e+00 
0.0000000e+00 0.0000000e+00 0.0000000e+00 
-1.4401961e-04 -5.2565225e-05 0.0000000e+00 
-2.8177068e-04 -1.9717333e-04 0.0000000e+00 
0.0000000e+00 0.0000000e+00 0.0000000e+00 
0.0000000e+00 0.0000000e+00 0.0000000e+00 
1.7874016e-05 7.6557935e-06 0.0000000e+00 
-3.6718734e-04 -4.5176002e-04 0.0000000e+00 
-4.0483428e-04 -4.6165244e-04 0.0000000e+00 
1.8098539e-05 -2.6206073e-04 0.0000000e+00 
0.0000000e+00 0.0000000e+00 0.0000000e+00 
0.0000000e+00 0.0000000e+00 0.0000000e+00 
1.4408474e-04 -1.7110016e-05 0.0000000e+00 
-5.1579979e-04 -1.2685233e-03 0.0000000e+00 
3.4274711e-04 -1.4815750e-04 0.0000000e+00 
-4.3310843e-05 -8.6504716e-04 0.0000000e+00 
-4.5352246e-04 -1.0058039e-03 0.0000000e+00 
7.3920086e-04 -5.9784827e-04 0.0000000e+00 
0.0000000e+00 0.0000000e+00 0.0000000e+00 
-2.5474292e-04 -2.6169904e-03 0.0000000e+00 
-4.5540414e-04 -2.6722515e-03 0.0000000e+00 
-2.2949537e-04 -1.4019429e-03 0.0000000e+00 
1.2406133e-03 -1.5253659e-03 0.0000000e+00 
0.0000000e+00 0.0000000e+00 0.0000000e+00 
-4.7649554e-04 -5.5442015e-03 0.0000000e+00 
1.2415353e-03 -4.7620893e-03 0.0000000e+00 
1.5060476e-05 -3.4539329e-03 0.0000000e+00 
1.5176463e-04 -1.3997846e-03 0.0000000e+00 
0.0000000e+00 0.0000000e+00 0.0000000e+00 
-7.7207078e-05 -1.0522722e-02 0.0000000e+00 
6.0361775e-04 -5.2293730e-03 0.0000000e+00 
3.7400081e-04 -2.5502541e-03 0.0000000e+00 
2.9869180e-04 -1.0732342e-03 0.0000000e+00 
0.0000000e+00 0.0000000e+00 0.0000000e+00 
-1.0459420e-03 -3.8253134e-03 0.0000000e+00 
1.9402524e-04 -2.4608481e-03 0.0000000e+00 
2.9400041e-04 -1.6637053e-03 0.0000000e+00 
2.6494093e-04 -7.9465413e-04 0.0000000e+00 
-6.7310961e-04 -1.9231007e-03 0.0000000e+00 
0.0000000e+00 0.0000000e+00 0.0000000e+00 
-1.1237676e-04 -1.7102789e-03 0.0000000e+00 
1.7658975e-04 -1.3685289e-03 0.0000000e+00 
2.3611331e-04 -6.5209082e-04 0.0000000e+00 
-2.4545228e-04 -2.1096363e-03 0.0000000e+00 
0.0000000e+00 0.0000000e+00 0.0000000e+00 
-2.2056267e-04 -2.0984437e-03 0.0000000e+00 
2.0186232e-04 -1.2628993e-03 0.0000000e+00 
2.6490734e-04 -4.9843104e-04 0.0000000e+00 
-3.6810731e-04 -3.6192213e-03 0.0000000e+00 
1.5245666e-04 -1.7413399e-03 0.0000000e+00 
0.0000000e+00 0.0000000e+00 0.0000000e+00 
2.5199889e-04 -7.8641163e-04 0.0000000e+00 
2.4733969e-04 -3.0159278e-04 0.0000000e+00 
-5.6974328e-04 -1.2047519e-03 0.0000000e+00 
3.8784598e-05 -6.7703100e-04 0.0000000e+00 
0.0000000e+00 0.0000000e+00 0.0000000e+00 
2.2496728e-04 -3.3335903e-04 0.0000000e+00 
1.6247413e-04 -1.1568362e-04 0.0000000e+00 
-3.9134896e-04 -4.3513672e-04 0.0000000e+00 
5.6721929e-05 -2.3506556e-04 0.0000000e+00 
0.0000000e+00 0.0000000e+00 0.0000000e+00 
1.6440758e-04 -1.1965488e-04 0.0000000e+00 
1.0754748e-04 -4.5886605e-05 0.0000000e+00 
-2.2598833e-04 -1.4303582e-04 0.0000000e+00 
2.7561120e-05 -5.4395194e-05 0.0000000e+00 
0.0000000e+00 0.0000000e+00 0.0000000e+00 
9.6192853e-05 -2.4772160e-05 0.0000000e+00 
6.1945997e-05 -1.1242674e-05 0.0000000e+00 
-9.6938405e-05 -1.5198856e-05 0.0000000e+00 
1.5746415e-05 8.4361500e-06 0.0000000e+00 
0.0000000e+00 0.0000000e+00 0.0000000e+00 
5.0970510e-05 5.6748754e-06 0.0000000e+00 
3.2537126e-05 1.0636338e-06 0.0000000e+00 
-3.9110109e-05 1.7454122e-05 0.0000000e+00 
1.1434184e-05 2.2930431e-05 0.0000000e+00 
0.0000000e+00 0.0000000e+00 0.0000000e+00 
2.4741399e-05 1.3442235e-05 0.0000000e+00 
-3.5081714e-06 2.3681740e-05 0.0000000e+00 
1.5919162e-05 4.4567901e-06 0.0000000e+00 
7.8734620e-06 1.9465997e-05 0.0000000e+00 
0.0000000e+00 0.0000000e+00 0.0000000e+00 
1.0436780e-05 1.0743333e-05 0.0000000e+00 
5.9440526e-06 1.7150749e-05 0.0000000e+00 
7.0973633e-06 3.5384319e-06 0.0000000e+00 
6.2996814e-06 1.2221140e-05 0.0000000e+00 
0.0000000e+00 0.0000000e+00 0.0000000e+00 
8.6664777e-06 1.0497111e-05 0.0000000e+00 
3.5845919e-06 4.0933364e-06 0.0000000e+00 
0.0000000e+00 0.0000000e+00 0.0000000e+00 
1.7140914e-06 1.0017723e-06 0.0000000e+00 
2.8365002e-06 3.5563864e-06 0.0000000e+00 
5.1943030e-06 4.2698844e-06 0.0000000e+00 
0.0000000e+00 0.0000000e+00 0.0000000e+00 
0.0000000e+00 0.0000000e+00 0.0000000e+00 
0.0000000e+00 0.0000000e+00 0.0000000e+00 
0.0000000e+00 0.0000000e+00 0.0000000e+00 
0.0000000e+00 0.0000000e+00 0.0000000e+00 
CELL_DATA 38
FIELD FieldData 0
