# vtk DataFile Version 4.0
vtk output
ASCII
DATASET UNSTRUCTURED_GRID
POINTS 101 float
0.0000000e+00 0.0000000e+00 0.0000000e+00 
0.0000000e+00 2.5000000e-01 0.0000000e+00 
2.5000000e-01 0.0000000e+00 0.0000000e+00 
2.5000000e-01 2.5000000e-01 0.0000000e+00 
0.0000000e+00 5.0000000e-01 0.0000000e+00 
5.0000000e-01 0.0000000e+00 0.0000000e+00 
3.5416666e-01 5.0558227e-01 0.0000000e+00 
6.0416669e-01 2.5558227e-01 0.0000000e+00 
0.0000000e+00 7.5000000e-01 0.0000000e+00 
7.5000000e-01 0.0000000e+00 0.0000000e+00 
2.5000000e-01 7.5000000e-01 0.0000000e+00 
7.0833331e-01 5.1116455e-01 0.0000000e+00 
8.5416669e-01 2.5558227e-01 0.0000000e+00 
6.0416669e-01 7.5558227e-01 0.0000000e+00 
0.0000000e+00 1.0000000e+00 0.0000000e+00 
1.0000000e+00 0.0000000e+00 0.0000000e+00 
2.5000000e-01 1.0000000e+00 0.0000000e+00 
9.7916669e-01 5.3907591e-01 0.0000000e+00 
5.0000000e-01 1.0000000e+00 0.0000000e+00 
8.5416669e-01 7.5558227e-01 0.0000000e+00 
1.1250000e+00 2.8349364e-01 0.0000000e+00 
7.5000000e-01 1.0000000e+00 0.0000000e+00 
1.2500000e+00 0.0000000e+00 0.0000000e+00 
1.1250000e+00 7.8349364e-01 0.0000000e+00 
1.2500000e+00 5.6698728e-01 0.0000000e+00 
1.3750000e+00 2.8349364e-01 0.0000000e+00 
1.0000000e+00 1.0000000e+00 0.0000000e+00 
1.5000000e+00 0.0000000e+00 0.0000000e+00 
1.3750000e+00 7.8349364e-01 0.0000000e+00 
1.2500000e+00 1.0000000e+00 0.0000000e+00 
1.5000000e+00 5.6698728e-01 0.0000000e+00 
1.6250000e+00 2.8349364e-01 0.0000000e+00 
1.7500000e+00 0.0000000e+00 0.0000000e+00 
1.5000000e+00 1.0000000e+00 0.0000000e+00 
1.6250000e+00 7.8349364e-01 0.0000000e+00 
1.7500000e+00 5.6698728e-01 0.0000000e+00 
1.8750000e+00 2.8349364e-01 0.0000000e+00 
2.0000000e+00 0.0000000e+00 0.0000000e+00 
1.7500000e+00 1.0000000e+00 0.0000000e+00 
1.8750000e+00 7.8349364e-01 0.0000000e+00 
2.0000000e+00 5.6698728e-01 0.0000000e+00 
2.1250000e+00 2.8349364e-01 0.0000000e+00 
2.0000000e+00 1.0000000e+00 0.0000000e+00 
2.2500000e+00 0.0000000e+00 0.0000000e+00 
2.1250000e+00 7.8349364e-01 0.0000000e+00 
2.2500000e+00 5.6698728e-01 0.0000000e+00 
2.3750000e+00 2.8349364e-01 0.0000000e+00 
2.2500000e+00 1.0000000e+00 0.0000000e+00 
2.5000000e+00 0.0000000e+00 0.0000000e+00 
2.3750000e+00 7.8349364e-01 0.0000000e+00 
2.5000000e+00 5.6698728e-01 0.0000000e+00 
2.6250000e+00 2.8349364e-01 0.0000000e+00 
2.5000000e+00 1.0000000e+00 0.0000000e+00 
2.6250000e+00 7.8349364e-01 0.0000000e+00 
2.7500000e+00 0.0000000e+00 0.0000000e+00 
2.7500000e+00 5.6698728e-01 0.0000000e+00 
2.8750000e+00 2.8349364e-01 0.0000000e+00 
2.7500000e+00 1.0000000e+00 0.0000000e+00 
2.8750000e+00 7.8349364e-01 0.0000000e+00 
3.0000000e+00 0.0000000e+00 0.0000000e+00 
3.0000000e+00 5.0000000e-01 0.0000000e+00 
3.1250000e+00 2.1650635e-01 0.0000000e+00 
3.0000000e+00 1.0000000e+00 0.0000000e+00 
3.1250000e+00 7.1650636e-01 0.0000000e+00 
3.2500000e+00 0.0000000e+00 0.0000000e+00 
3.2500000e+00 4.3301269e-01 0.0000000e+00 
3.3750000e+00 2.1650635e-01 0.0000000e+00 
3.2500000e+00 1.0000000e+00 0.0000000e+00 
3.3750000e+00 7.1650636e-01 0.0000000e+00 
3.5000000e+00 0.0000000e+00 0.0000000e+00 
3.5000000e+00 4.3301269e-01 0.0000000e+00 
3.6250000e+00 2.1650635e-01 0.0000000e+00 
3.5000000e+00 1.0000000e+00 0.0000000e+00 
3.6250000e+00 7.1650636e-01 0.0000000e+00 
3.7500000e+00 0.0000000e+00 0.0000000e+00 
3.7500000e+00 4.3301269e-01 0.0000000e+00 
3.8750000e+00 2.1650635e-01 0.0000000e+00 
3.7500000e+00 1.0000000e+00 0.0000000e+00 
3.8750000e+00 7.1650636e-01 0.0000000e+00 
4.0000000e+00 0.0000000e+00 0.0000000e+00 
4.0208335e+00 4.6092409e-01 0.0000000e+00 
4.0000000e+00 1.0000000e+00 0.0000000e+00 
4.1458335e+00 2.4441773e-01 0.0000000e+00 
4.1458335e+00 7.4441773e-01 0.0000000e+00 
4.2500000e+00 0.0000000e+00 0.0000000e+00 
4.2916665e+00 4.8883545e-01 0.0000000e+00 
4.2500000e+00 1.0000000e+00 0.0000000e+00 
4.3958335e+00 2.4441773e-01 0.0000000e+00 
4.3958335e+00 7.4441773e-01 0.0000000e+00 
4.5000000e+00 0.0000000e+00 0.0000000e+00 
4.5000000e+00 1.0000000e+00 0.0000000e+00 
4.6458335e+00 4.9441773e-01 0.0000000e+00 
4.7500000e+00 0.0000000e+00 0.0000000e+00 
4.7500000e+00 2.5000000e-01 0.0000000e+00 
4.7500000e+00 7.5000000e-01 0.0000000e+00 
4.7500000e+00 1.0000000e+00 0.0000000e+00 
5.0000000e+00 0.0000000e+00 0.0000000e+00 
5.0000000e+00 2.5000000e-01 0.0000000e+00 
5.0000000e+00 5.0000000e-01 0.0000000e+00 
5.0000000e+00 7.5000000e-01 0.0000000e+00 
5.0000000e+00 1.0000000e+00 0.0000000e+00 

CELLS 38 266
6 0 5 4 2 3 1
6 79 89 85 84 87 82
6 62 52 55 57 53 58
6 85 89 98 87 93 91
6 79 85 75 82 80 76
6 55 52 45 53 49 50
6 75 85 81 80 83 78
6 79 75 69 76 71 74
6 45 52 42 49 47 44
6 55 45 48 50 46 51
6 69 75 65 71 70 66
6 65 75 72 70 73 68
6 69 65 59 66 61 64
6 59 65 55 61 60 56
6 37 48 45 43 46 41
6 100 90 98 95 94 99
6 26 18 11 21 13 19
6 11 18 4 13 10 6
6 26 11 24 19 17 23
6 24 11 15 17 12 20
6 26 24 33 23 28 29
6 33 24 35 28 30 34
6 35 24 27 30 25 31
6 33 35 42 34 39 38
6 42 35 45 39 40 44
6 45 35 37 40 36 41
6 15 27 24 22 25 20
6 96 98 89 97 93 92
6 81 72 75 77 73 78
6 14 4 18 8 10 16
6 5 15 11 9 12 7
6 48 59 55 54 56 51
6 90 81 85 86 83 88
6 27 37 35 32 36 31
6 72 62 65 67 63 68
6 62 55 65 58 60 63
6 90 85 98 88 91 94
6 5 11 4 7 6 3

CELL_TYPES 38
22
22
22
22
22
22
22
22
22
22
22
22
22
22
22
22
22
22
22
22
22
22
22
22
22
22
22
22
22
22
22
22
22
22
22
22
22
22
POINT_DATA 101
FIELD FieldData 1
DISPLACEMENT 3 101  float
0.0000000e+00 0.0000000e+00 0.0000000e+00 
0.0000000e+00 0.0000000e+00 0.0000000e+00 
0.0000000e+00 0.0000000e+00 0.0000000e+00 
-2.6379543e-04 -5.1142776e-04 0.0000000e+00 
0.0000000e+00 0.0000000e+00 0.0000000e+00 
0.0000000e+00 0.0000000e+00 0.0000000e+00 
-4.6467673e-04 -1.4040218e-03 0.0000000e+00 
-2.2957099e-04 -1.1553183e-03 0.0000000e+00 
0.0000000e+00 0.0000000e+00 0.0000000e+00 
0.0000000e+00 0.0000000e+00 0.0000000e+00 
-1.1534771e-04 -1.1528624e-03 0.0000000e+00 
-1.2010269e-04 -2.9094652e-03 0.0000000e+00 
1.0703904e-04 -1.2145079e-03 0.0000000e+00 
-2.2963191e-04 -4.2432616e-03 0.0000000e+00 
0.0000000e+00 0.0000000e+00 0.0000000e+00 
0.0000000e+00 0.0000000e+00 0.0000000e+00 
9.7653986e-04 -1.2743809e-03 0.0000000e+00 
4.2636585e-04 -2.5202825e-03 0.0000000e+00 
1.2889227e-03 -4.1573909e-03 0.0000000e+00 
4.1731918e-04 -4.4925730e-03 0.0000000e+00 
3.2288249e-04 -1.0732010e-03 0.0000000e+00 
4.4508022e-05 -8.0964388e-03 0.0000000e+00 
0.0000000e+00 0.0000000e+00 0.0000000e+00 
1.2026136e-04 -2.4006246e-03 0.0000000e+00 
3.5218894e-04 -1.6303851e-03 0.0000000e+00 
2.7595059e-04 -7.9251197e-04 0.0000000e+00 
-9.3419710e-04 -3.6362663e-03 0.0000000e+00 
0.0000000e+00 0.0000000e+00 0.0000000e+00 
-5.6149034e-05 -1.6675768e-03 0.0000000e+00 
-5.6315417e-04 -1.9902275e-03 0.0000000e+00 
1.6318532e-04 -1.3426378e-03 0.0000000e+00 
2.3603303e-04 -6.4762915e-04 0.0000000e+00 
0.0000000e+00 0.0000000e+00 0.0000000e+00 
-1.3133686e-04 -1.9824170e-03 0.0000000e+00 
-1.3010965e-04 -1.9052405e-03 0.0000000e+00 
1.9511538e-04 -1.2703886e-03 0.0000000e+00 
2.6677834e-04 -5.0300511e-04 0.0000000e+00 
0.0000000e+00 0.0000000e+00 0.0000000e+00 
-3.3944298e-04 -2.9308982e-03 0.0000000e+00 
1.0031211e-04 -1.5780533e-03 0.0000000e+00 
2.8000108e-04 -8.2380488e-04 0.0000000e+00 
2.5788503e-04 -3.1098569e-04 0.0000000e+00 
-5.7973090e-04 -1.1474550e-03 0.0000000e+00 
0.0000000e+00 0.0000000e+00 0.0000000e+00 
2.0938187e-05 -6.6944805e-04 0.0000000e+00 
2.2879792e-04 -3.7051461e-04 0.0000000e+00 
1.9646705e-04 -1.4767681e-04 0.0000000e+00 
-3.8714331e-04 -4.3853486e-04 0.0000000e+00 
0.0000000e+00 0.0000000e+00 0.0000000e+00 
-9.0476969e-06 -2.3186039e-04 0.0000000e+00 
1.3524250e-04 -1.2213859e-04 0.0000000e+00 
1.2756379e-04 -5.2728119e-05 0.0000000e+00 
-1.9917102e-04 -1.3249381e-04 0.0000000e+00 
-9.6476297e-06 -5.2530453e-05 0.0000000e+00 
0.0000000e+00 0.0000000e+00 0.0000000e+00 
7.1963979e-05 -1.9320169e-05 0.0000000e+00 
7.5760887e-05 -1.0761365e-05 0.0000000e+00 
-9.4366311e-05 -1.9890127e-05 0.0000000e+00 
-6.4284450e-07 1.0690130e-05 0.0000000e+00 
0.0000000e+00 0.0000000e+00 0.0000000e+00 
4.9811108e-05 9.2953824e-06 0.0000000e+00 
3.6810347e-05 9.9589727e-07 0.0000000e+00 
-2.7091892e-05 1.6553475e-05 0.0000000e+00 
1.3082317e-05 2.2250582e-05 0.0000000e+00 
0.0000000e+00 0.0000000e+00 0.0000000e+00 
3.0668762e-05 1.3325054e-05 0.0000000e+00 
1.8638617e-05 4.0373011e-06 0.0000000e+00 
-2.8100726e-06 2.1695065e-05 0.0000000e+00 
1.2133994e-05 1.9978248e-05 0.0000000e+00 
0.0000000e+00 0.0000000e+00 0.0000000e+00 
1.7090157e-05 1.0413502e-05 0.0000000e+00 
9.3234603e-06 3.2432392e-06 0.0000000e+00 
1.0475898e-05 1.7477238e-05 0.0000000e+00 
1.0490501e-05 1.3318307e-05 0.0000000e+00 
0.0000000e+00 0.0000000e+00 0.0000000e+00 
9.1388592e-06 6.8833178e-06 0.0000000e+00 
4.6255059e-06 2.1276385e-06 0.0000000e+00 
1.2003935e-05 1.1324830e-05 0.0000000e+00 
8.5653292e-06 7.6402548e-06 0.0000000e+00 
0.0000000e+00 0.0000000e+00 0.0000000e+00 
5.6582835e-06 3.4654672e-06 0.0000000e+00 
1.1055654e-05 6.4022174e-06 0.0000000e+00 
2.6379109e-06 1.0194333e-06 0.0000000e+00 
6.6506373e-06 3.5671821e-06 0.0000000e+00 
0.0000000e+00 0.0000000e+00 0.0000000e+00 
3.5510038e-06 1.4222529e-06 0.0000000e+00 
8.1328390e-06 3.2525111e-06 0.0000000e+00 
1.4961330e-06 2.9491451e-07 0.0000000e+00 
4.6034643e-06 1.4348728e-06 0.0000000e+00 
0.0000000e+00 0.0000000e+00 0.0000000e+00 
5.2117666e-06 1.5323960e-06 0.0000000e+00 
1.6508108e-06 3.1271199e-08 0.0000000e+00 
0.0000000e+00 0.0000000e+00 0.0000000e+00 
5.6603886e-07 -1.5945275e-07 0.0000000e+00 
1.8331948e-06 1.5124103e-07 0.0000000e+00 
2.4923629e-06 6.4294261e-07 0.0000000e+00 
0.0000000e+00 0.0000000e+00 0.0000000e+00 
0.0000000e+00 0.0000000e+00 0.0000000e+00 
0.0000000e+00 0.0000000e+00 0.0000000e+00 
0.0000000e+00 0.0000000e+00 0.0000000e+00 
0.0000000e+00 0.0000000e+00 0.0000000e+00 
CELL_DATA 38
FIELD FieldData 0
