# vtk DataFile Version 4.0
vtk output
ASCII
DATASET UNSTRUCTURED_GRID
POINTS 101 float
0.0000000e+00 0.0000000e+00 0.0000000e+00 
0.0000000e+00 2.5000000e-01 0.0000000e+00 
2.5000000e-01 0.0000000e+00 0.0000000e+00 
2.5000000e-01 2.5000000e-01 0.0000000e+00 
0.0000000e+00 5.0000000e-01 0.0000000e+00 
5.0000000e-01 0.0000000e+00 0.0000000e+00 
3.5416666e-01 5.0558227e-01 0.0000000e+00 
6.0416669e-01 2.5558227e-01 0.0000000e+00 
0.0000000e+00 7.5000000e-01 0.0000000e+00 
7.5000000e-01 0.0000000e+00 0.0000000e+00 
2.5000000e-01 7.5000000e-01 0.0000000e+00 
7.0833331e-01 5.1116455e-01 0.0000000e+00 
8.5416669e-01 2.5558227e-01 0.0000000e+00 
6.0416669e-01 7.5558227e-01 0.0000000e+00 
0.0000000e+00 1.0000000e+00 0.0000000e+00 
1.0000000e+00 0.0000000e+00 0.0000000e+00 
2.5000000e-01 1.0000000e+00 0.0000000e+00 
9.7916669e-01 5.3907591e-01 0.0000000e+00 
5.0000000e-01 1.0000000e+00 0.0000000e+00 
8.5416669e-01 7.5558227e-01 0.0000000e+00 
1.1250000e+00 2.8349364e-01 0.0000000e+00 
7.5000000e-01 1.0000000e+00 0.0000000e+00 
1.2500000e+00 0.0000000e+00 0.0000000e+00 
1.1250000e+00 7.8349364e-01 0.0000000e+00 
1.2500000e+00 5.6698728e-01 0.0000000e+00 
1.3750000e+00 2.8349364e-01 0.0000000e+00 
1.0000000e+00 1.0000000e+00 0.0000000e+00 
1.5000000e+00 0.0000000e+00 0.0000000e+00 
1.3750000e+00 7.8349364e-01 0.0000000e+00 
1.2500000e+00 1.0000000e+00 0.0000000e+00 
1.5000000e+00 5.6698728e-01 0.0000000e+00 
1.6250000e+00 2.8349364e-01 0.0000000e+00 
1.7500000e+00 0.0000000e+00 0.0000000e+00 
1.5000000e+00 1.0000000e+00 0.0000000e+00 
1.6250000e+00 7.8349364e-01 0.0000000e+00 
1.7500000e+00 5.6698728e-01 0.0000000e+00 
1.8750000e+00 2.8349364e-01 0.0000000e+00 
2.0000000e+00 0.0000000e+00 0.0000000e+00 
1.7500000e+00 1.0000000e+00 0.0000000e+00 
1.8750000e+00 7.8349364e-01 0.0000000e+00 
2.0000000e+00 5.6698728e-01 0.0000000e+00 
2.1250000e+00 2.8349364e-01 0.0000000e+00 
2.0000000e+00 1.0000000e+00 0.0000000e+00 
2.2500000e+00 0.0000000e+00 0.0000000e+00 
2.1250000e+00 7.8349364e-01 0.0000000e+00 
2.2500000e+00 5.6698728e-01 0.0000000e+00 
2.3750000e+00 2.8349364e-01 0.0000000e+00 
2.2500000e+00 1.0000000e+00 0.0000000e+00 
2.5000000e+00 0.0000000e+00 0.0000000e+00 
2.3750000e+00 7.8349364e-01 0.0000000e+00 
2.5000000e+00 5.6698728e-01 0.0000000e+00 
2.6250000e+00 2.8349364e-01 0.0000000e+00 
2.5000000e+00 1.0000000e+00 0.0000000e+00 
2.6250000e+00 7.8349364e-01 0.0000000e+00 
2.7500000e+00 0.0000000e+00 0.0000000e+00 
2.7500000e+00 5.6698728e-01 0.0000000e+00 
2.8750000e+00 2.8349364e-01 0.0000000e+00 
2.7500000e+00 1.0000000e+00 0.0000000e+00 
2.8750000e+00 7.8349364e-01 0.0000000e+00 
3.0000000e+00 0.0000000e+00 0.0000000e+00 
3.0000000e+00 5.0000000e-01 0.0000000e+00 
3.1250000e+00 2.1650635e-01 0.0000000e+00 
3.0000000e+00 1.0000000e+00 0.0000000e+00 
3.1250000e+00 7.1650636e-01 0.0000000e+00 
3.2500000e+00 0.0000000e+00 0.0000000e+00 
3.2500000e+00 4.3301269e-01 0.0000000e+00 
3.3750000e+00 2.1650635e-01 0.0000000e+00 
3.2500000e+00 1.0000000e+00 0.0000000e+00 
3.3750000e+00 7.1650636e-01 0.0000000e+00 
3.5000000e+00 0.0000000e+00 0.0000000e+00 
3.5000000e+00 4.3301269e-01 0.0000000e+00 
3.6250000e+00 2.1650635e-01 0.0000000e+00 
3.5000000e+00 1.0000000e+00 0.0000000e+00 
3.6250000e+00 7.1650636e-01 0.0000000e+00 
3.7500000e+00 0.0000000e+00 0.0000000e+00 
3.7500000e+00 4.3301269e-01 0.0000000e+00 
3.8750000e+00 2.1650635e-01 0.0000000e+00 
3.7500000e+00 1.0000000e+00 0.0000000e+00 
3.8750000e+00 7.1650636e-01 0.0000000e+00 
4.0000000e+00 0.0000000e+00 0.0000000e+00 
4.0208335e+00 4.6092409e-01 0.0000000e+00 
4.0000000e+00 1.0000000e+00 0.0000000e+00 
4.1458335e+00 2.4441773e-01 0.0000000e+00 
4.1458335e+00 7.4441773e-01 0.0000000e+00 
4.2500000e+00 0.0000000e+00 0.0000000e+00 
4.2916665e+00 4.8883545e-01 0.0000000e+00 
4.2500000e+00 1.0000000e+00 0.0000000e+00 
4.3958335e+00 2.4441773e-01 0.0000000e+00 
4.3958335e+00 7.4441773e-01 0.0000000e+00 
4.5000000e+00 0.0000000e+00 0.0000000e+00 
4.5000000e+00 1.0000000e+00 0.0000000e+00 
4.6458335e+00 4.9441773e-01 0.0000000e+00 
4.7500000e+00 0.0000000e+00 0.0000000e+00 
4.7500000e+00 2.5000000e-01 0.0000000e+00 
4.7500000e+00 7.5000000e-01 0.0000000e+00 
4.7500000e+00 1.0000000e+00 0.0000000e+00 
5.0000000e+00 0.0000000e+00 0.0000000e+00 
5.0000000e+00 2.5000000e-01 0.0000000e+00 
5.0000000e+00 5.0000000e-01 0.0000000e+00 
5.0000000e+00 7.5000000e-01 0.0000000e+00 
5.0000000e+00 1.0000000e+00 0.0000000e+00 

CELLS 38 266
6 0 5 4 2 3 1
6 79 89 85 84 87 82
6 62 52 55 57 53 58
6 85 89 98 87 93 91
6 79 85 75 82 80 76
6 55 52 45 53 49 50
6 75 85 81 80 83 78
6 79 75 69 76 71 74
6 45 52 42 49 47 44
6 55 45 48 50 46 51
6 69 75 65 71 70 66
6 65 75 72 70 73 68
6 69 65 59 66 61 64
6 59 65 55 61 60 56
6 37 48 45 43 46 41
6 100 90 98 95 94 99
6 26 18 11 21 13 19
6 11 18 4 13 10 6
6 26 11 24 19 17 23
6 24 11 15 17 12 20
6 26 24 33 23 28 29
6 33 24 35 28 30 34
6 35 24 27 30 25 31
6 33 35 42 34 39 38
6 42 35 45 39 40 44
6 45 35 37 40 36 41
6 15 27 24 22 25 20
6 96 98 89 97 93 92
6 81 72 75 77 73 78
6 14 4 18 8 10 16
6 5 15 11 9 12 7
6 48 59 55 54 56 51
6 90 81 85 86 83 88
6 27 37 35 32 36 31
6 72 62 65 67 63 68
6 62 55 65 58 60 63
6 90 85 98 88 91 94
6 5 11 4 7 6 3

CELL_TYPES 38
22
22
22
22
22
22
22
22
22
22
22
22
22
22
22
22
22
22
22
22
22
22
22
22
22
22
22
22
22
22
22
22
22
22
22
22
22
22
POINT_DATA 101
FIELD FieldData 1
DISPLACEMENT 3 101  float
0.0000000e+00 0.0000000e+00 0.0000000e+00 
0.0000000e+00 0.0000000e+00 0.0000000e+00 
0.0000000e+00 0.0000000e+00 0.0000000e+00 
-5.6479240e-07 3.3593628e-07 0.0000000e+00 
0.0000000e+00 0.0000000e+00 0.0000000e+00 
0.0000000e+00 0.0000000e+00 0.0000000e+00 
-1.8397445e-06 1.6346893e-06 0.0000000e+00 
-2.3531470e-06 2.3142029e-06 0.0000000e+00 
0.0000000e+00 0.0000000e+00 0.0000000e+00 
0.0000000e+00 0.0000000e+00 0.0000000e+00 
-2.3215073e-06 1.2535623e-06 0.0000000e+00 
-4.6563887e-06 6.7753472e-06 0.0000000e+00 
-5.5620294e-06 4.5908873e-06 0.0000000e+00 
-5.4828633e-06 6.1941296e-06 0.0000000e+00 
0.0000000e+00 0.0000000e+00 0.0000000e+00 
0.0000000e+00 0.0000000e+00 0.0000000e+00 
-4.0706877e-06 1.9349909e-06 0.0000000e+00 
-8.2322103e-06 1.4029371e-05 0.0000000e+00 
-7.9624206e-06 5.1112884e-06 0.0000000e+00 
-6.9921284e-06 1.2535815e-05 0.0000000e+00 
-1.3779735e-05 9.4027955e-06 0.0000000e+00 
-1.0964574e-05 1.0341227e-05 0.0000000e+00 
0.0000000e+00 0.0000000e+00 0.0000000e+00 
-7.0732726e-06 2.4263374e-05 0.0000000e+00 
-1.3879155e-05 2.6505533e-05 0.0000000e+00 
-2.9453886e-05 1.2405007e-05 0.0000000e+00 
-1.2373359e-05 1.8379133e-05 0.0000000e+00 
0.0000000e+00 0.0000000e+00 0.0000000e+00 
-3.0754584e-06 3.6649308e-05 0.0000000e+00 
-6.0096263e-06 2.9986166e-05 0.0000000e+00 
-2.6532203e-05 3.4257955e-05 0.0000000e+00 
-5.9606507e-05 1.0722249e-05 0.0000000e+00 
0.0000000e+00 0.0000000e+00 0.0000000e+00 
1.1267644e-05 3.9798746e-05 0.0000000e+00 
6.6017624e-06 4.6612462e-05 0.0000000e+00 
-5.0174025e-05 3.4144665e-05 0.0000000e+00 
-1.1516060e-04 -9.8179853e-06 0.0000000e+00 
0.0000000e+00 0.0000000e+00 0.0000000e+00 
6.7150191e-05 3.6866852e-05 0.0000000e+00 
2.4497196e-05 2.9980489e-05 0.0000000e+00 
-1.0326237e-04 -1.5560869e-05 0.0000000e+00 
-2.0425675e-04 -7.3918032e-05 0.0000000e+00 
1.6400269e-04 -1.2147769e-05 0.0000000e+00 
0.0000000e+00 0.0000000e+00 0.0000000e+00 
4.7899786e-05 -5.9272148e-05 0.0000000e+00 
-1.9378605e-04 -1.7332354e-04 0.0000000e+00 
-3.2823958e-04 -2.2981032e-04 0.0000000e+00 
3.8581001e-04 -1.9319779e-04 0.0000000e+00 
0.0000000e+00 0.0000000e+00 0.0000000e+00 
6.3430154e-05 -3.3912857e-04 0.0000000e+00 
-3.4719091e-04 -5.6624971e-04 0.0000000e+00 
-4.5684131e-04 -5.3846132e-04 0.0000000e+00 
7.0134690e-04 -6.5179711e-04 0.0000000e+00 
2.2483875e-05 -1.0312774e-03 0.0000000e+00 
0.0000000e+00 0.0000000e+00 0.0000000e+00 
-5.3829362e-04 -1.3796233e-03 0.0000000e+00 
-4.9180520e-04 -1.0032872e-03 0.0000000e+00 
1.0840209e-03 -1.7840895e-03 0.0000000e+00 
-1.1835621e-04 -2.5860709e-03 0.0000000e+00 
0.0000000e+00 0.0000000e+00 0.0000000e+00 
-5.4617971e-04 -2.3090807e-03 0.0000000e+00 
-2.0569137e-04 -1.0303990e-03 0.0000000e+00 
1.1549771e-03 -4.5680967e-03 0.0000000e+00 
-3.1153625e-04 -4.3124831e-03 0.0000000e+00 
0.0000000e+00 0.0000000e+00 0.0000000e+00 
-6.7914807e-05 -2.4250459e-03 0.0000000e+00 
1.0123936e-04 -1.0409172e-03 0.0000000e+00 
1.8978029e-05 -8.1716133e-03 0.0000000e+00 
3.6554606e-04 -4.1595348e-03 0.0000000e+00 
0.0000000e+00 0.0000000e+00 0.0000000e+00 
3.6570700e-04 -1.9865888e-03 0.0000000e+00 
2.5797213e-04 -8.3925540e-04 0.0000000e+00 
-9.8503032e-04 -3.7924461e-03 0.0000000e+00 
2.0632340e-04 -2.3777871e-03 0.0000000e+00 
0.0000000e+00 0.0000000e+00 0.0000000e+00 
3.7169294e-04 -1.3742623e-03 0.0000000e+00 
2.4632525e-04 -6.2816113e-04 0.0000000e+00 
-6.8177772e-04 -2.0900334e-03 0.0000000e+00 
-9.5036086e-07 -1.6263517e-03 0.0000000e+00 
0.0000000e+00 0.0000000e+00 0.0000000e+00 
2.0764749e-04 -1.0928605e-03 0.0000000e+00 
-3.1765652e-04 -1.9815471e-03 0.0000000e+00 
2.1480914e-04 -5.3361780e-04 0.0000000e+00 
-1.1113408e-04 -1.7454526e-03 0.0000000e+00 
0.0000000e+00 0.0000000e+00 0.0000000e+00 
2.3418939e-04 -9.9140476e-04 0.0000000e+00 
-4.0563304e-04 -2.8133774e-03 0.0000000e+00 
2.2208830e-04 -4.0038102e-04 0.0000000e+00 
9.7687443e-05 -1.2996466e-03 0.0000000e+00 
0.0000000e+00 0.0000000e+00 0.0000000e+00 
-5.7789445e-04 -1.0936278e-03 0.0000000e+00 
2.1531830e-04 -3.9796362e-04 0.0000000e+00 
0.0000000e+00 0.0000000e+00 0.0000000e+00 
1.2971113e-04 -1.5512874e-04 0.0000000e+00 
1.0933639e-05 -2.7757548e-04 0.0000000e+00 
-3.4610645e-04 -3.2239451e-04 0.0000000e+00 
0.0000000e+00 0.0000000e+00 0.0000000e+00 
0.0000000e+00 0.0000000e+00 0.0000000e+00 
0.0000000e+00 0.0000000e+00 0.0000000e+00 
0.0000000e+00 0.0000000e+00 0.0000000e+00 
0.0000000e+00 0.0000000e+00 0.0000000e+00 
CELL_DATA 38
FIELD FieldData 0
