# vtk DataFile Version 4.0
vtk output
ASCII
DATASET UNSTRUCTURED_GRID
POINTS 101 float
0.0000000e+00 0.0000000e+00 0.0000000e+00 
0.0000000e+00 2.5000000e-01 0.0000000e+00 
2.5000000e-01 0.0000000e+00 0.0000000e+00 
2.5000000e-01 2.5000000e-01 0.0000000e+00 
0.0000000e+00 5.0000000e-01 0.0000000e+00 
5.0000000e-01 0.0000000e+00 0.0000000e+00 
3.5416666e-01 5.0558227e-01 0.0000000e+00 
6.0416669e-01 2.5558227e-01 0.0000000e+00 
0.0000000e+00 7.5000000e-01 0.0000000e+00 
7.5000000e-01 0.0000000e+00 0.0000000e+00 
2.5000000e-01 7.5000000e-01 0.0000000e+00 
7.0833331e-01 5.1116455e-01 0.0000000e+00 
8.5416669e-01 2.5558227e-01 0.0000000e+00 
6.0416669e-01 7.5558227e-01 0.0000000e+00 
0.0000000e+00 1.0000000e+00 0.0000000e+00 
1.0000000e+00 0.0000000e+00 0.0000000e+00 
2.5000000e-01 1.0000000e+00 0.0000000e+00 
9.7916669e-01 5.3907591e-01 0.0000000e+00 
5.0000000e-01 1.0000000e+00 0.0000000e+00 
8.5416669e-01 7.5558227e-01 0.0000000e+00 
1.1250000e+00 2.8349364e-01 0.0000000e+00 
7.5000000e-01 1.0000000e+00 0.0000000e+00 
1.2500000e+00 0.0000000e+00 0.0000000e+00 
1.1250000e+00 7.8349364e-01 0.0000000e+00 
1.2500000e+00 5.6698728e-01 0.0000000e+00 
1.3750000e+00 2.8349364e-01 0.0000000e+00 
1.0000000e+00 1.0000000e+00 0.0000000e+00 
1.5000000e+00 0.0000000e+00 0.0000000e+00 
1.3750000e+00 7.8349364e-01 0.0000000e+00 
1.2500000e+00 1.0000000e+00 0.0000000e+00 
1.5000000e+00 5.6698728e-01 0.0000000e+00 
1.6250000e+00 2.8349364e-01 0.0000000e+00 
1.7500000e+00 0.0000000e+00 0.0000000e+00 
1.5000000e+00 1.0000000e+00 0.0000000e+00 
1.6250000e+00 7.8349364e-01 0.0000000e+00 
1.7500000e+00 5.6698728e-01 0.0000000e+00 
1.8750000e+00 2.8349364e-01 0.0000000e+00 
2.0000000e+00 0.0000000e+00 0.0000000e+00 
1.7500000e+00 1.0000000e+00 0.0000000e+00 
1.8750000e+00 7.8349364e-01 0.0000000e+00 
2.0000000e+00 5.6698728e-01 0.0000000e+00 
2.1250000e+00 2.8349364e-01 0.0000000e+00 
2.0000000e+00 1.0000000e+00 0.0000000e+00 
2.2500000e+00 0.0000000e+00 0.0000000e+00 
2.1250000e+00 7.8349364e-01 0.0000000e+00 
2.2500000e+00 5.6698728e-01 0.0000000e+00 
2.3750000e+00 2.8349364e-01 0.0000000e+00 
2.2500000e+00 1.0000000e+00 0.0000000e+00 
2.5000000e+00 0.0000000e+00 0.0000000e+00 
2.3750000e+00 7.8349364e-01 0.0000000e+00 
2.5000000e+00 5.6698728e-01 0.0000000e+00 
2.6250000e+00 2.8349364e-01 0.0000000e+00 
2.5000000e+00 1.0000000e+00 0.0000000e+00 
2.6250000e+00 7.8349364e-01 0.0000000e+00 
2.7500000e+00 0.0000000e+00 0.0000000e+00 
2.7500000e+00 5.6698728e-01 0.0000000e+00 
2.8750000e+00 2.8349364e-01 0.0000000e+00 
2.7500000e+00 1.0000000e+00 0.0000000e+00 
2.8750000e+00 7.8349364e-01 0.0000000e+00 
3.0000000e+00 0.0000000e+00 0.0000000e+00 
3.0000000e+00 5.0000000e-01 0.0000000e+00 
3.1250000e+00 2.1650635e-01 0.0000000e+00 
3.0000000e+00 1.0000000e+00 0.0000000e+00 
3.1250000e+00 7.1650636e-01 0.0000000e+00 
3.2500000e+00 0.0000000e+00 0.0000000e+00 
3.2500000e+00 4.3301269e-01 0.0000000e+00 
3.3750000e+00 2.1650635e-01 0.0000000e+00 
3.2500000e+00 1.0000000e+00 0.0000000e+00 
3.3750000e+00 7.1650636e-01 0.0000000e+00 
3.5000000e+00 0.0000000e+00 0.0000000e+00 
3.5000000e+00 4.3301269e-01 0.0000000e+00 
3.6250000e+00 2.1650635e-01 0.0000000e+00 
3.5000000e+00 1.0000000e+00 0.0000000e+00 
3.6250000e+00 7.1650636e-01 0.0000000e+00 
3.7500000e+00 0.0000000e+00 0.0000000e+00 
3.7500000e+00 4.3301269e-01 0.0000000e+00 
3.8750000e+00 2.1650635e-01 0.0000000e+00 
3.7500000e+00 1.0000000e+00 0.0000000e+00 
3.8750000e+00 7.1650636e-01 0.0000000e+00 
4.0000000e+00 0.0000000e+00 0.0000000e+00 
4.0208335e+00 4.6092409e-01 0.0000000e+00 
4.0000000e+00 1.0000000e+00 0.0000000e+00 
4.1458335e+00 2.4441773e-01 0.0000000e+00 
4.1458335e+00 7.4441773e-01 0.0000000e+00 
4.2500000e+00 0.0000000e+00 0.0000000e+00 
4.2916665e+00 4.8883545e-01 0.0000000e+00 
4.2500000e+00 1.0000000e+00 0.0000000e+00 
4.3958335e+00 2.4441773e-01 0.0000000e+00 
4.3958335e+00 7.4441773e-01 0.0000000e+00 
4.5000000e+00 0.0000000e+00 0.0000000e+00 
4.5000000e+00 1.0000000e+00 0.0000000e+00 
4.6458335e+00 4.9441773e-01 0.0000000e+00 
4.7500000e+00 0.0000000e+00 0.0000000e+00 
4.7500000e+00 2.5000000e-01 0.0000000e+00 
4.7500000e+00 7.5000000e-01 0.0000000e+00 
4.7500000e+00 1.0000000e+00 0.0000000e+00 
5.0000000e+00 0.0000000e+00 0.0000000e+00 
5.0000000e+00 2.5000000e-01 0.0000000e+00 
5.0000000e+00 5.0000000e-01 0.0000000e+00 
5.0000000e+00 7.5000000e-01 0.0000000e+00 
5.0000000e+00 1.0000000e+00 0.0000000e+00 

CELLS 38 266
6 0 5 4 2 3 1
6 79 89 85 84 87 82
6 62 52 55 57 53 58
6 85 89 98 87 93 91
6 79 85 75 82 80 76
6 55 52 45 53 49 50
6 75 85 81 80 83 78
6 79 75 69 76 71 74
6 45 52 42 49 47 44
6 55 45 48 50 46 51
6 69 75 65 71 70 66
6 65 75 72 70 73 68
6 69 65 59 66 61 64
6 59 65 55 61 60 56
6 37 48 45 43 46 41
6 100 90 98 95 94 99
6 26 18 11 21 13 19
6 11 18 4 13 10 6
6 26 11 24 19 17 23
6 24 11 15 17 12 20
6 26 24 33 23 28 29
6 33 24 35 28 30 34
6 35 24 27 30 25 31
6 33 35 42 34 39 38
6 42 35 45 39 40 44
6 45 35 37 40 36 41
6 15 27 24 22 25 20
6 96 98 89 97 93 92
6 81 72 75 77 73 78
6 14 4 18 8 10 16
6 5 15 11 9 12 7
6 48 59 55 54 56 51
6 90 81 85 86 83 88
6 27 37 35 32 36 31
6 72 62 65 67 63 68
6 62 55 65 58 60 63
6 90 85 98 88 91 94
6 5 11 4 7 6 3

CELL_TYPES 38
22
22
22
22
22
22
22
22
22
22
22
22
22
22
22
22
22
22
22
22
22
22
22
22
22
22
22
22
22
22
22
22
22
22
22
22
22
22
POINT_DATA 101
FIELD FieldData 1
DISPLACEMENT 3 101  float
0.0000000e+00 0.0000000e+00 0.0000000e+00 
0.0000000e+00 0.0000000e+00 0.0000000e+00 
0.0000000e+00 0.0000000e+00 0.0000000e+00 
-6.1618339e-05 -4.8087598e-04 0.0000000e+00 
0.0000000e+00 0.0000000e+00 0.0000000e+00 
0.0000000e+00 0.0000000e+00 0.0000000e+00 
2.5778482e-04 -1.4898300e-03 0.0000000e+00 
1.3681794e-04 -6.3383003e-04 0.0000000e+00 
0.0000000e+00 0.0000000e+00 0.0000000e+00 
0.0000000e+00 0.0000000e+00 0.0000000e+00 
2.0136418e-04 -2.6193787e-03 0.0000000e+00 
2.1451124e-04 -1.0980932e-03 0.0000000e+00 
1.2356523e-04 -5.6104216e-04 0.0000000e+00 
2.6653067e-04 -1.7181024e-03 0.0000000e+00 
0.0000000e+00 0.0000000e+00 0.0000000e+00 
0.0000000e+00 0.0000000e+00 0.0000000e+00 
-1.9675992e-04 -5.2756672e-03 0.0000000e+00 
1.1478949e-04 -1.1346629e-03 0.0000000e+00 
-4.4576325e-05 -2.7003831e-03 0.0000000e+00 
1.0519573e-04 -1.3762297e-03 0.0000000e+00 
1.4462577e-04 -5.8902625e-04 0.0000000e+00 
2.0690391e-05 -1.5471857e-03 0.0000000e+00 
0.0000000e+00 0.0000000e+00 0.0000000e+00 
-1.6721600e-05 -1.8331273e-03 0.0000000e+00 
1.9255080e-04 -1.2508973e-03 0.0000000e+00 
2.2255092e-04 -4.9461413e-04 0.0000000e+00 
1.7425083e-04 -1.8194501e-03 0.0000000e+00 
0.0000000e+00 0.0000000e+00 0.0000000e+00 
1.7976269e-04 -1.5810933e-03 0.0000000e+00 
-1.4925806e-04 -2.8913917e-03 0.0000000e+00 
2.9247758e-04 -8.3692686e-04 0.0000000e+00 
2.4114862e-04 -3.1720393e-04 0.0000000e+00 
0.0000000e+00 0.0000000e+00 0.0000000e+00 
-4.7385652e-04 -1.1552381e-03 0.0000000e+00 
7.5884105e-05 -6.9126731e-04 0.0000000e+00 
2.4726568e-04 -3.9200773e-04 0.0000000e+00 
1.9431397e-04 -1.5667033e-04 0.0000000e+00 
0.0000000e+00 0.0000000e+00 0.0000000e+00 
-3.2549095e-04 -4.5740651e-04 0.0000000e+00 
2.8603486e-05 -2.5371209e-04 0.0000000e+00 
1.5388857e-04 -1.3884761e-04 0.0000000e+00 
1.3138018e-04 -5.9971604e-05 0.0000000e+00 
-1.6488445e-04 -1.4833111e-04 0.0000000e+00 
0.0000000e+00 0.0000000e+00 0.0000000e+00 
1.6445236e-05 -6.7805442e-05 0.0000000e+00 
8.9302303e-05 -3.0887859e-05 0.0000000e+00 
8.0759834e-05 -1.5760383e-05 0.0000000e+00 
-7.2321396e-05 -3.0877269e-05 0.0000000e+00 
0.0000000e+00 0.0000000e+00 0.0000000e+00 
1.7456239e-05 7.0134053e-07 0.0000000e+00 
5.4581971e-05 5.6693634e-06 0.0000000e+00 
4.7450176e-05 -4.9646105e-09 0.0000000e+00 
-1.2159699e-05 1.0746665e-05 0.0000000e+00 
1.9355421e-05 1.7977023e-05 0.0000000e+00 
0.0000000e+00 0.0000000e+00 0.0000000e+00 
3.3172790e-05 1.4913066e-05 0.0000000e+00 
2.7442507e-05 4.0609743e-06 0.0000000e+00 
9.1288739e-06 1.8546583e-05 0.0000000e+00 
1.9763647e-05 1.7997963e-05 0.0000000e+00 
0.0000000e+00 0.0000000e+00 0.0000000e+00 
2.3204871e-05 1.0117328e-05 0.0000000e+00 
1.3407008e-05 2.3417281e-06 0.0000000e+00 
1.8898189e-05 1.5405143e-05 0.0000000e+00 
1.8014694e-05 1.1792198e-05 0.0000000e+00 
0.0000000e+00 0.0000000e+00 0.0000000e+00 
1.5110723e-05 5.9458448e-06 0.0000000e+00 
7.7129534e-06 1.5703371e-06 0.0000000e+00 
1.8710811e-05 1.0573257e-05 0.0000000e+00 
1.4783553e-05 7.0929655e-06 0.0000000e+00 
0.0000000e+00 0.0000000e+00 0.0000000e+00 
1.0225501e-05 2.9893340e-06 0.0000000e+00 
4.8140259e-06 6.4493156e-07 0.0000000e+00 
1.6643120e-05 6.3061761e-06 0.0000000e+00 
1.1697261e-05 3.6003239e-06 0.0000000e+00 
0.0000000e+00 0.0000000e+00 0.0000000e+00 
7.0216329e-06 1.2995014e-06 0.0000000e+00 
3.1859649e-06 1.2008634e-07 0.0000000e+00 
1.3052673e-05 3.4244001e-06 0.0000000e+00 
8.9410732e-06 1.5198981e-06 0.0000000e+00 
0.0000000e+00 0.0000000e+00 0.0000000e+00 
5.2049782e-06 2.0495443e-07 0.0000000e+00 
9.6714002e-06 1.7022692e-06 0.0000000e+00 
2.4058206e-06 -2.3534975e-07 0.0000000e+00 
6.5215900e-06 4.2868768e-07 0.0000000e+00 
0.0000000e+00 0.0000000e+00 0.0000000e+00 
3.6904207e-06 -2.6043242e-07 0.0000000e+00 
6.6821626e-06 8.0472057e-07 0.0000000e+00 
1.6107876e-06 -3.6356337e-07 0.0000000e+00 
4.3611467e-06 -2.2699405e-08 0.0000000e+00 
0.0000000e+00 0.0000000e+00 0.0000000e+00 
4.1103617e-06 4.5052184e-07 0.0000000e+00 
1.7654424e-06 -4.0655914e-07 0.0000000e+00 
0.0000000e+00 0.0000000e+00 0.0000000e+00 
6.7287635e-07 -3.1308795e-07 0.0000000e+00 
1.6766282e-06 -1.1382447e-07 0.0000000e+00 
1.9200027e-06 2.9701030e-07 0.0000000e+00 
0.0000000e+00 0.0000000e+00 0.0000000e+00 
0.0000000e+00 0.0000000e+00 0.0000000e+00 
0.0000000e+00 0.0000000e+00 0.0000000e+00 
0.0000000e+00 0.0000000e+00 0.0000000e+00 
0.0000000e+00 0.0000000e+00 0.0000000e+00 
CELL_DATA 38
FIELD FieldData 0
