# vtk DataFile Version 4.0
vtk output
ASCII
DATASET UNSTRUCTURED_GRID
POINTS 101 float
0.0000000e+00 0.0000000e+00 0.0000000e+00 
0.0000000e+00 2.5000000e-01 0.0000000e+00 
2.5000000e-01 0.0000000e+00 0.0000000e+00 
2.5000000e-01 2.5000000e-01 0.0000000e+00 
0.0000000e+00 5.0000000e-01 0.0000000e+00 
5.0000000e-01 0.0000000e+00 0.0000000e+00 
3.5416666e-01 5.0558227e-01 0.0000000e+00 
6.0416669e-01 2.5558227e-01 0.0000000e+00 
0.0000000e+00 7.5000000e-01 0.0000000e+00 
7.5000000e-01 0.0000000e+00 0.0000000e+00 
2.5000000e-01 7.5000000e-01 0.0000000e+00 
7.0833331e-01 5.1116455e-01 0.0000000e+00 
8.5416669e-01 2.5558227e-01 0.0000000e+00 
6.0416669e-01 7.5558227e-01 0.0000000e+00 
0.0000000e+00 1.0000000e+00 0.0000000e+00 
1.0000000e+00 0.0000000e+00 0.0000000e+00 
2.5000000e-01 1.0000000e+00 0.0000000e+00 
9.7916669e-01 5.3907591e-01 0.0000000e+00 
5.0000000e-01 1.0000000e+00 0.0000000e+00 
8.5416669e-01 7.5558227e-01 0.0000000e+00 
1.1250000e+00 2.8349364e-01 0.0000000e+00 
7.5000000e-01 1.0000000e+00 0.0000000e+00 
1.2500000e+00 0.0000000e+00 0.0000000e+00 
1.1250000e+00 7.8349364e-01 0.0000000e+00 
1.2500000e+00 5.6698728e-01 0.0000000e+00 
1.3750000e+00 2.8349364e-01 0.0000000e+00 
1.0000000e+00 1.0000000e+00 0.0000000e+00 
1.5000000e+00 0.0000000e+00 0.0000000e+00 
1.3750000e+00 7.8349364e-01 0.0000000e+00 
1.2500000e+00 1.0000000e+00 0.0000000e+00 
1.5000000e+00 5.6698728e-01 0.0000000e+00 
1.6250000e+00 2.8349364e-01 0.0000000e+00 
1.7500000e+00 0.0000000e+00 0.0000000e+00 
1.5000000e+00 1.0000000e+00 0.0000000e+00 
1.6250000e+00 7.8349364e-01 0.0000000e+00 
1.7500000e+00 5.6698728e-01 0.0000000e+00 
1.8750000e+00 2.8349364e-01 0.0000000e+00 
2.0000000e+00 0.0000000e+00 0.0000000e+00 
1.7500000e+00 1.0000000e+00 0.0000000e+00 
1.8750000e+00 7.8349364e-01 0.0000000e+00 
2.0000000e+00 5.6698728e-01 0.0000000e+00 
2.1250000e+00 2.8349364e-01 0.0000000e+00 
2.0000000e+00 1.0000000e+00 0.0000000e+00 
2.2500000e+00 0.0000000e+00 0.0000000e+00 
2.1250000e+00 7.8349364e-01 0.0000000e+00 
2.2500000e+00 5.6698728e-01 0.0000000e+00 
2.3750000e+00 2.8349364e-01 0.0000000e+00 
2.2500000e+00 1.0000000e+00 0.0000000e+00 
2.5000000e+00 0.0000000e+00 0.0000000e+00 
2.3750000e+00 7.8349364e-01 0.0000000e+00 
2.5000000e+00 5.6698728e-01 0.0000000e+00 
2.6250000e+00 2.8349364e-01 0.0000000e+00 
2.5000000e+00 1.0000000e+00 0.0000000e+00 
2.6250000e+00 7.8349364e-01 0.0000000e+00 
2.7500000e+00 0.0000000e+00 0.0000000e+00 
2.7500000e+00 5.6698728e-01 0.0000000e+00 
2.8750000e+00 2.8349364e-01 0.0000000e+00 
2.7500000e+00 1.0000000e+00 0.0000000e+00 
2.8750000e+00 7.8349364e-01 0.0000000e+00 
3.0000000e+00 0.0000000e+00 0.0000000e+00 
3.0000000e+00 5.0000000e-01 0.0000000e+00 
3.1250000e+00 2.1650635e-01 0.0000000e+00 
3.0000000e+00 1.0000000e+00 0.0000000e+00 
3.1250000e+00 7.1650636e-01 0.0000000e+00 
3.2500000e+00 0.0000000e+00 0.0000000e+00 
3.2500000e+00 4.3301269e-01 0.0000000e+00 
3.3750000e+00 2.1650635e-01 0.0000000e+00 
3.2500000e+00 1.0000000e+00 0.0000000e+00 
3.3750000e+00 7.1650636e-01 0.0000000e+00 
3.5000000e+00 0.0000000e+00 0.0000000e+00 
3.5000000e+00 4.3301269e-01 0.0000000e+00 
3.6250000e+00 2.1650635e-01 0.0000000e+00 
3.5000000e+00 1.0000000e+00 0.0000000e+00 
3.6250000e+00 7.1650636e-01 0.0000000e+00 
3.7500000e+00 0.0000000e+00 0.0000000e+00 
3.7500000e+00 4.3301269e-01 0.0000000e+00 
3.8750000e+00 2.1650635e-01 0.0000000e+00 
3.7500000e+00 1.0000000e+00 0.0000000e+00 
3.8750000e+00 7.1650636e-01 0.0000000e+00 
4.0000000e+00 0.0000000e+00 0.0000000e+00 
4.0208335e+00 4.6092409e-01 0.0000000e+00 
4.0000000e+00 1.0000000e+00 0.0000000e+00 
4.1458335e+00 2.4441773e-01 0.0000000e+00 
4.1458335e+00 7.4441773e-01 0.0000000e+00 
4.2500000e+00 0.0000000e+00 0.0000000e+00 
4.2916665e+00 4.8883545e-01 0.0000000e+00 
4.2500000e+00 1.0000000e+00 0.0000000e+00 
4.3958335e+00 2.4441773e-01 0.0000000e+00 
4.3958335e+00 7.4441773e-01 0.0000000e+00 
4.5000000e+00 0.0000000e+00 0.0000000e+00 
4.5000000e+00 1.0000000e+00 0.0000000e+00 
4.6458335e+00 4.9441773e-01 0.0000000e+00 
4.7500000e+00 0.0000000e+00 0.0000000e+00 
4.7500000e+00 2.5000000e-01 0.0000000e+00 
4.7500000e+00 7.5000000e-01 0.0000000e+00 
4.7500000e+00 1.0000000e+00 0.0000000e+00 
5.0000000e+00 0.0000000e+00 0.0000000e+00 
5.0000000e+00 2.5000000e-01 0.0000000e+00 
5.0000000e+00 5.0000000e-01 0.0000000e+00 
5.0000000e+00 7.5000000e-01 0.0000000e+00 
5.0000000e+00 1.0000000e+00 0.0000000e+00 

CELLS 38 266
6 0 5 4 2 3 1
6 79 89 85 84 87 82
6 62 52 55 57 53 58
6 85 89 98 87 93 91
6 79 85 75 82 80 76
6 55 52 45 53 49 50
6 75 85 81 80 83 78
6 79 75 69 76 71 74
6 45 52 42 49 47 44
6 55 45 48 50 46 51
6 69 75 65 71 70 66
6 65 75 72 70 73 68
6 69 65 59 66 61 64
6 59 65 55 61 60 56
6 37 48 45 43 46 41
6 100 90 98 95 94 99
6 26 18 11 21 13 19
6 11 18 4 13 10 6
6 26 11 24 19 17 23
6 24 11 15 17 12 20
6 26 24 33 23 28 29
6 33 24 35 28 30 34
6 35 24 27 30 25 31
6 33 35 42 34 39 38
6 42 35 45 39 40 44
6 45 35 37 40 36 41
6 15 27 24 22 25 20
6 96 98 89 97 93 92
6 81 72 75 77 73 78
6 14 4 18 8 10 16
6 5 15 11 9 12 7
6 48 59 55 54 56 51
6 90 81 85 86 83 88
6 27 37 35 32 36 31
6 72 62 65 67 63 68
6 62 55 65 58 60 63
6 90 85 98 88 91 94
6 5 11 4 7 6 3

CELL_TYPES 38
22
22
22
22
22
22
22
22
22
22
22
22
22
22
22
22
22
22
22
22
22
22
22
22
22
22
22
22
22
22
22
22
22
22
22
22
22
22
POINT_DATA 101
FIELD FieldData 1
DISPLACEMENT 3 101  float
0.0000000e+00 0.0000000e+00 0.0000000e+00 
0.0000000e+00 0.0000000e+00 0.0000000e+00 
0.0000000e+00 0.0000000e+00 0.0000000e+00 
-5.1524643e-07 -2.6077223e-07 0.0000000e+00 
0.0000000e+00 0.0000000e+00 0.0000000e+00 
0.0000000e+00 0.0000000e+00 0.0000000e+00 
-1.4681349e-06 -3.4231175e-07 0.0000000e+00 
-1.2433733e-06 -2.2212059e-07 0.0000000e+00 
0.0000000e+00 0.0000000e+00 0.0000000e+00 
0.0000000e+00 0.0000000e+00 0.0000000e+00 
-1.4688252e-06 -1.2439885e-07 0.0000000e+00 
-3.0860222e-06 6.5530696e-09 0.0000000e+00 
-1.8204755e-06 9.0046221e-08 0.0000000e+00 
-3.8508360e-06 1.0167035e-07 0.0000000e+00 
0.0000000e+00 0.0000000e+00 0.0000000e+00 
0.0000000e+00 0.0000000e+00 0.0000000e+00 
-1.7508283e-06 2.4932510e-07 0.0000000e+00 
-4.6820314e-06 1.0557681e-06 0.0000000e+00 
-3.7813902e-06 4.4092292e-07 0.0000000e+00 
-5.7407897e-06 8.3662974e-07 0.0000000e+00 
-3.0127596e-06 1.0408295e-06 0.0000000e+00 
-6.2773834e-06 9.9914575e-07 0.0000000e+00 
0.0000000e+00 0.0000000e+00 0.0000000e+00 
-8.3199120e-06 2.9083453e-06 0.0000000e+00 
-6.7264286e-06 3.7029276e-06 0.0000000e+00 
-4.6889609e-06 2.6621651e-06 0.0000000e+00 
-9.2200025e-06 2.3567272e-06 0.0000000e+00 
0.0000000e+00 0.0000000e+00 0.0000000e+00 
-1.0530364e-05 6.6190441e-06 0.0000000e+00 
-1.2736588e-05 5.2028422e-06 0.0000000e+00 
-8.9186033e-06 7.9446727e-06 0.0000000e+00 
-8.1152903e-06 5.4779466e-06 0.0000000e+00 
0.0000000e+00 0.0000000e+00 0.0000000e+00 
-1.6331442e-05 1.0185590e-05 0.0000000e+00 
-1.2305944e-05 1.3519602e-05 0.0000000e+00 
-1.2245438e-05 1.5903513e-05 0.0000000e+00 
-1.5684192e-05 9.2011824e-06 0.0000000e+00 
0.0000000e+00 0.0000000e+00 0.0000000e+00 
-1.7809300e-05 1.8830862e-05 0.0000000e+00 
-1.2627173e-05 2.3827877e-05 0.0000000e+00 
-1.8636767e-05 2.5380787e-05 0.0000000e+00 
-3.1080275e-05 1.3032472e-05 0.0000000e+00 
-1.5249057e-05 3.0093408e-05 0.0000000e+00 
0.0000000e+00 0.0000000e+00 0.0000000e+00 
-9.8469563e-06 3.8260281e-05 0.0000000e+00 
-3.0497979e-05 3.7840942e-05 0.0000000e+00 
-6.2005391e-05 1.1081550e-05 0.0000000e+00 
4.8078123e-06 4.2696898e-05 0.0000000e+00 
0.0000000e+00 0.0000000e+00 0.0000000e+00 
-1.3578037e-06 4.8739323e-05 0.0000000e+00 
-5.8252372e-05 3.4122495e-05 0.0000000e+00 
-1.1687524e-04 -8.0234258e-06 0.0000000e+00 
4.6545407e-05 4.3919947e-05 0.0000000e+00 
1.4226630e-05 3.9432271e-05 0.0000000e+00 
0.0000000e+00 0.0000000e+00 0.0000000e+00 
-1.0895592e-04 -9.2780456e-06 0.0000000e+00 
-2.0607398e-04 -7.2351795e-05 0.0000000e+00 
1.6967322e-04 -4.4731266e-07 0.0000000e+00 
3.2465785e-05 -4.4706507e-05 0.0000000e+00 
0.0000000e+00 0.0000000e+00 0.0000000e+00 
-2.5243175e-04 -1.6234163e-04 0.0000000e+00 
-2.9514267e-04 -2.0215387e-04 0.0000000e+00 
3.7413352e-04 -1.5615496e-04 0.0000000e+00 
-7.6864344e-05 -3.2003198e-04 0.0000000e+00 
0.0000000e+00 0.0000000e+00 0.0000000e+00 
-4.6666319e-04 -5.3581578e-04 0.0000000e+00 
-3.7505210e-04 -4.3079161e-04 0.0000000e+00 
7.4244599e-04 -6.3280121e-04 0.0000000e+00 
-1.8842450e-04 -9.7749871e-04 0.0000000e+00 
0.0000000e+00 0.0000000e+00 0.0000000e+00 
-5.4104207e-04 -1.1423168e-03 0.0000000e+00 
-3.4555988e-04 -7.3583063e-04 0.0000000e+00 
1.1869373e-03 -1.5605200e-03 0.0000000e+00 
-4.6800403e-04 -2.5097737e-03 0.0000000e+00 
0.0000000e+00 0.0000000e+00 0.0000000e+00 
-3.5576412e-04 -1.9034586e-03 0.0000000e+00 
-1.4087334e-04 -1.0061773e-03 0.0000000e+00 
9.8528026e-04 -4.8063337e-03 0.0000000e+00 
-5.0403731e-04 -4.8004752e-03 0.0000000e+00 
0.0000000e+00 0.0000000e+00 0.0000000e+00 
8.1362516e-05 -2.5506443e-03 0.0000000e+00 
-1.6321210e-04 -1.0149715e-02 0.0000000e+00 
2.2522853e-04 -1.0875363e-03 0.0000000e+00 
5.7337381e-04 -4.4885422e-03 0.0000000e+00 
0.0000000e+00 0.0000000e+00 0.0000000e+00 
4.1941548e-04 -1.7732175e-03 0.0000000e+00 
-1.2307264e-03 -3.6186858e-03 0.0000000e+00 
3.3831850e-04 -7.1849494e-04 0.0000000e+00 
2.5023770e-04 -1.8974097e-03 0.0000000e+00 
0.0000000e+00 0.0000000e+00 0.0000000e+00 
-1.0481143e-03 -1.3599891e-03 0.0000000e+00 
3.1751211e-04 -6.3660892e-04 0.0000000e+00 
0.0000000e+00 0.0000000e+00 0.0000000e+00 
2.0393638e-04 -2.4383373e-04 0.0000000e+00 
-2.1889775e-05 -4.5090279e-04 0.0000000e+00 
-5.2003423e-04 -6.8199629e-04 0.0000000e+00 
0.0000000e+00 0.0000000e+00 0.0000000e+00 
0.0000000e+00 0.0000000e+00 0.0000000e+00 
0.0000000e+00 0.0000000e+00 0.0000000e+00 
0.0000000e+00 0.0000000e+00 0.0000000e+00 
0.0000000e+00 0.0000000e+00 0.0000000e+00 
CELL_DATA 38
FIELD FieldData 0
