# vtk DataFile Version 4.0
vtk output
ASCII
DATASET UNSTRUCTURED_GRID
POINTS 101 float
0.0000000e+00 0.0000000e+00 0.0000000e+00 
0.0000000e+00 2.5000000e-01 0.0000000e+00 
2.5000000e-01 0.0000000e+00 0.0000000e+00 
2.5000000e-01 2.5000000e-01 0.0000000e+00 
0.0000000e+00 5.0000000e-01 0.0000000e+00 
5.0000000e-01 0.0000000e+00 0.0000000e+00 
3.5416666e-01 5.0558227e-01 0.0000000e+00 
6.0416669e-01 2.5558227e-01 0.0000000e+00 
0.0000000e+00 7.5000000e-01 0.0000000e+00 
7.5000000e-01 0.0000000e+00 0.0000000e+00 
2.5000000e-01 7.5000000e-01 0.0000000e+00 
7.0833331e-01 5.1116455e-01 0.0000000e+00 
8.5416669e-01 2.5558227e-01 0.0000000e+00 
6.0416669e-01 7.5558227e-01 0.0000000e+00 
0.0000000e+00 1.0000000e+00 0.0000000e+00 
1.0000000e+00 0.0000000e+00 0.0000000e+00 
2.5000000e-01 1.0000000e+00 0.0000000e+00 
9.7916669e-01 5.3907591e-01 0.0000000e+00 
5.0000000e-01 1.0000000e+00 0.0000000e+00 
8.5416669e-01 7.5558227e-01 0.0000000e+00 
1.1250000e+00 2.8349364e-01 0.0000000e+00 
7.5000000e-01 1.0000000e+00 0.0000000e+00 
1.2500000e+00 0.0000000e+00 0.0000000e+00 
1.1250000e+00 7.8349364e-01 0.0000000e+00 
1.2500000e+00 5.6698728e-01 0.0000000e+00 
1.3750000e+00 2.8349364e-01 0.0000000e+00 
1.0000000e+00 1.0000000e+00 0.0000000e+00 
1.5000000e+00 0.0000000e+00 0.0000000e+00 
1.3750000e+00 7.8349364e-01 0.0000000e+00 
1.2500000e+00 1.0000000e+00 0.0000000e+00 
1.5000000e+00 5.6698728e-01 0.0000000e+00 
1.6250000e+00 2.8349364e-01 0.0000000e+00 
1.7500000e+00 0.0000000e+00 0.0000000e+00 
1.5000000e+00 1.0000000e+00 0.0000000e+00 
1.6250000e+00 7.8349364e-01 0.0000000e+00 
1.7500000e+00 5.6698728e-01 0.0000000e+00 
1.8750000e+00 2.8349364e-01 0.0000000e+00 
2.0000000e+00 0.0000000e+00 0.0000000e+00 
1.7500000e+00 1.0000000e+00 0.0000000e+00 
1.8750000e+00 7.8349364e-01 0.0000000e+00 
2.0000000e+00 5.6698728e-01 0.0000000e+00 
2.1250000e+00 2.8349364e-01 0.0000000e+00 
2.0000000e+00 1.0000000e+00 0.0000000e+00 
2.2500000e+00 0.0000000e+00 0.0000000e+00 
2.1250000e+00 7.8349364e-01 0.0000000e+00 
2.2500000e+00 5.6698728e-01 0.0000000e+00 
2.3750000e+00 2.8349364e-01 0.0000000e+00 
2.2500000e+00 1.0000000e+00 0.0000000e+00 
2.5000000e+00 0.0000000e+00 0.0000000e+00 
2.3750000e+00 7.8349364e-01 0.0000000e+00 
2.5000000e+00 5.6698728e-01 0.0000000e+00 
2.6250000e+00 2.8349364e-01 0.0000000e+00 
2.5000000e+00 1.0000000e+00 0.0000000e+00 
2.6250000e+00 7.8349364e-01 0.0000000e+00 
2.7500000e+00 0.0000000e+00 0.0000000e+00 
2.7500000e+00 5.6698728e-01 0.0000000e+00 
2.8750000e+00 2.8349364e-01 0.0000000e+00 
2.7500000e+00 1.0000000e+00 0.0000000e+00 
2.8750000e+00 7.8349364e-01 0.0000000e+00 
3.0000000e+00 0.0000000e+00 0.0000000e+00 
3.0000000e+00 5.0000000e-01 0.0000000e+00 
3.1250000e+00 2.1650635e-01 0.0000000e+00 
3.0000000e+00 1.0000000e+00 0.0000000e+00 
3.1250000e+00 7.1650636e-01 0.0000000e+00 
3.2500000e+00 0.0000000e+00 0.0000000e+00 
3.2500000e+00 4.3301269e-01 0.0000000e+00 
3.3750000e+00 2.1650635e-01 0.0000000e+00 
3.2500000e+00 1.0000000e+00 0.0000000e+00 
3.3750000e+00 7.1650636e-01 0.0000000e+00 
3.5000000e+00 0.0000000e+00 0.0000000e+00 
3.5000000e+00 4.3301269e-01 0.0000000e+00 
3.6250000e+00 2.1650635e-01 0.0000000e+00 
3.5000000e+00 1.0000000e+00 0.0000000e+00 
3.6250000e+00 7.1650636e-01 0.0000000e+00 
3.7500000e+00 0.0000000e+00 0.0000000e+00 
3.7500000e+00 4.3301269e-01 0.0000000e+00 
3.8750000e+00 2.1650635e-01 0.0000000e+00 
3.7500000e+00 1.0000000e+00 0.0000000e+00 
3.8750000e+00 7.1650636e-01 0.0000000e+00 
4.0000000e+00 0.0000000e+00 0.0000000e+00 
4.0208335e+00 4.6092409e-01 0.0000000e+00 
4.0000000e+00 1.0000000e+00 0.0000000e+00 
4.1458335e+00 2.4441773e-01 0.0000000e+00 
4.1458335e+00 7.4441773e-01 0.0000000e+00 
4.2500000e+00 0.0000000e+00 0.0000000e+00 
4.2916665e+00 4.8883545e-01 0.0000000e+00 
4.2500000e+00 1.0000000e+00 0.0000000e+00 
4.3958335e+00 2.4441773e-01 0.0000000e+00 
4.3958335e+00 7.4441773e-01 0.0000000e+00 
4.5000000e+00 0.0000000e+00 0.0000000e+00 
4.5000000e+00 1.0000000e+00 0.0000000e+00 
4.6458335e+00 4.9441773e-01 0.0000000e+00 
4.7500000e+00 0.0000000e+00 0.0000000e+00 
4.7500000e+00 2.5000000e-01 0.0000000e+00 
4.7500000e+00 7.5000000e-01 0.0000000e+00 
4.7500000e+00 1.0000000e+00 0.0000000e+00 
5.0000000e+00 0.0000000e+00 0.0000000e+00 
5.0000000e+00 2.5000000e-01 0.0000000e+00 
5.0000000e+00 5.0000000e-01 0.0000000e+00 
5.0000000e+00 7.5000000e-01 0.0000000e+00 
5.0000000e+00 1.0000000e+00 0.0000000e+00 

CELLS 38 266
6 0 5 4 2 3 1
6 79 89 85 84 87 82
6 62 52 55 57 53 58
6 85 89 98 87 93 91
6 79 85 75 82 80 76
6 55 52 45 53 49 50
6 75 85 81 80 83 78
6 79 75 69 76 71 74
6 45 52 42 49 47 44
6 55 45 48 50 46 51
6 69 75 65 71 70 66
6 65 75 72 70 73 68
6 69 65 59 66 61 64
6 59 65 55 61 60 56
6 37 48 45 43 46 41
6 100 90 98 95 94 99
6 26 18 11 21 13 19
6 11 18 4 13 10 6
6 26 11 24 19 17 23
6 24 11 15 17 12 20
6 26 24 33 23 28 29
6 33 24 35 28 30 34
6 35 24 27 30 25 31
6 33 35 42 34 39 38
6 42 35 45 39 40 44
6 45 35 37 40 36 41
6 15 27 24 22 25 20
6 96 98 89 97 93 92
6 81 72 75 77 73 78
6 14 4 18 8 10 16
6 5 15 11 9 12 7
6 48 59 55 54 56 51
6 90 81 85 86 83 88
6 27 37 35 32 36 31
6 72 62 65 67 63 68
6 62 55 65 58 60 63
6 90 85 98 88 91 94
6 5 11 4 7 6 3

CELL_TYPES 38
22
22
22
22
22
22
22
22
22
22
22
22
22
22
22
22
22
22
22
22
22
22
22
22
22
22
22
22
22
22
22
22
22
22
22
22
22
22
POINT_DATA 101
FIELD FieldData 1
DISPLACEMENT 3 101  float
0.0000000e+00 0.0000000e+00 0.0000000e+00 
0.0000000e+00 0.0000000e+00 0.0000000e+00 
0.0000000e+00 0.0000000e+00 0.0000000e+00 
-2.5794228e-05 4.7884387e-06 0.0000000e+00 
0.0000000e+00 0.0000000e+00 0.0000000e+00 
0.0000000e+00 0.0000000e+00 0.0000000e+00 
-3.4092402e-05 2.5270878e-05 0.0000000e+00 
-9.5038609e-05 -6.2745071e-06 0.0000000e+00 
0.0000000e+00 0.0000000e+00 0.0000000e+00 
0.0000000e+00 0.0000000e+00 0.0000000e+00 
2.9158837e-06 2.8433165e-05 0.0000000e+00 
-1.0141785e-04 -4.3262119e-08 0.0000000e+00 
-1.8315748e-04 -6.0653008e-05 0.0000000e+00 
1.2061670e-05 3.5917717e-05 0.0000000e+00 
0.0000000e+00 0.0000000e+00 0.0000000e+00 
0.0000000e+00 0.0000000e+00 0.0000000e+00 
1.4130528e-05 2.3470358e-05 0.0000000e+00 
-2.0875371e-04 -1.3845346e-04 0.0000000e+00 
5.3922395e-05 3.7729598e-05 0.0000000e+00 
2.3707102e-05 -3.3757478e-05 0.0000000e+00 
-3.2821076e-04 -2.3111177e-04 0.0000000e+00 
1.6969985e-04 -6.9667171e-06 0.0000000e+00 
0.0000000e+00 0.0000000e+00 0.0000000e+00 
6.7003071e-05 -3.0144423e-04 0.0000000e+00 
-3.7168482e-04 -5.7267438e-04 0.0000000e+00 
-4.4851753e-04 -5.4147415e-04 0.0000000e+00 
3.4712712e-04 -1.5689495e-04 0.0000000e+00 
0.0000000e+00 0.0000000e+00 0.0000000e+00 
2.5981995e-05 -9.5426996e-04 0.0000000e+00 
7.3515030e-04 -5.9961603e-04 0.0000000e+00 
-5.1736715e-04 -1.4185585e-03 0.0000000e+00 
-4.5972501e-04 -1.0056045e-03 0.0000000e+00 
0.0000000e+00 0.0000000e+00 0.0000000e+00 
1.2589511e-03 -1.5247434e-03 0.0000000e+00 
-2.6839445e-04 -2.6287877e-03 0.0000000e+00 
-4.5765346e-04 -2.6767422e-03 0.0000000e+00 
-2.3280649e-04 -1.4039292e-03 0.0000000e+00 
0.0000000e+00 0.0000000e+00 0.0000000e+00 
1.2397855e-03 -4.7743432e-03 0.0000000e+00 
-4.8360860e-04 -5.5523962e-03 0.0000000e+00 
1.2247398e-05 -3.4581693e-03 0.0000000e+00 
1.4998247e-04 -1.4014139e-03 0.0000000e+00 
-8.6904212e-05 -1.0530545e-02 0.0000000e+00 
0.0000000e+00 0.0000000e+00 0.0000000e+00 
5.9790839e-04 -5.2336394e-03 0.0000000e+00 
3.7101517e-04 -2.5525708e-03 0.0000000e+00 
2.9765887e-04 -1.0741670e-03 0.0000000e+00 
-1.0544304e-03 -3.8286459e-03 0.0000000e+00 
0.0000000e+00 0.0000000e+00 0.0000000e+00 
1.8898722e-04 -2.4628663e-03 0.0000000e+00 
2.9078306e-04 -1.6647169e-03 0.0000000e+00 
2.6459500e-04 -7.9540373e-04 0.0000000e+00 
-6.8157550e-04 -1.9246301e-03 0.0000000e+00 
-1.1609016e-04 -1.7103547e-03 0.0000000e+00 
0.0000000e+00 0.0000000e+00 0.0000000e+00 
1.7216337e-04 -1.3707989e-03 0.0000000e+00 
2.3781299e-04 -6.5020251e-04 0.0000000e+00 
-2.5779070e-04 -2.1042346e-03 0.0000000e+00 
-2.2244467e-04 -2.0878180e-03 0.0000000e+00 
0.0000000e+00 0.0000000e+00 0.0000000e+00 
2.4889346e-04 -1.0925437e-03 0.0000000e+00 
2.2473355e-04 -3.8030348e-04 0.0000000e+00 
-3.8129219e-04 -3.5588779e-03 0.0000000e+00 
2.0239488e-04 -1.5382953e-03 0.0000000e+00 
0.0000000e+00 0.0000000e+00 0.0000000e+00 
2.7168778e-04 -5.9288507e-04 0.0000000e+00 
2.0653363e-04 -2.2967035e-04 0.0000000e+00 
-5.3208385e-04 -1.2518812e-03 0.0000000e+00 
1.3290088e-04 -6.6813716e-04 0.0000000e+00 
0.0000000e+00 0.0000000e+00 0.0000000e+00 
2.3660575e-04 -3.0442988e-04 0.0000000e+00 
1.6018850e-04 -1.1708106e-04 0.0000000e+00 
-4.1951268e-04 -4.2574754e-04 0.0000000e+00 
5.6913930e-05 -2.3346864e-04 0.0000000e+00 
0.0000000e+00 0.0000000e+00 0.0000000e+00 
1.6754481e-04 -1.2380099e-04 0.0000000e+00 
1.0695426e-04 -4.7900896e-05 0.0000000e+00 
-2.3919770e-04 -1.3889672e-04 0.0000000e+00 
2.5194837e-05 -5.2320102e-05 0.0000000e+00 
0.0000000e+00 0.0000000e+00 0.0000000e+00 
8.7289263e-05 -1.9170371e-05 0.0000000e+00 
-1.0284836e-04 -1.1073833e-05 0.0000000e+00 
6.1047846e-05 -9.5692003e-06 0.0000000e+00 
4.5659044e-06 1.4138020e-05 0.0000000e+00 
0.0000000e+00 0.0000000e+00 0.0000000e+00 
3.7848124e-05 1.0982788e-05 0.0000000e+00 
-4.1187068e-05 1.8747754e-05 0.0000000e+00 
3.0343330e-05 2.2360250e-06 0.0000000e+00 
3.9640399e-06 2.3565130e-05 0.0000000e+00 
0.0000000e+00 0.0000000e+00 0.0000000e+00 
-5.2802120e-06 2.2481829e-05 0.0000000e+00 
1.2229591e-05 1.1085024e-05 0.0000000e+00 
0.0000000e+00 0.0000000e+00 0.0000000e+00 
7.9993797e-06 2.5583313e-06 0.0000000e+00 
1.9206293e-06 1.1495749e-05 0.0000000e+00 
1.7874464e-06 1.0976499e-05 0.0000000e+00 
0.0000000e+00 0.0000000e+00 0.0000000e+00 
0.0000000e+00 0.0000000e+00 0.0000000e+00 
0.0000000e+00 0.0000000e+00 0.0000000e+00 
0.0000000e+00 0.0000000e+00 0.0000000e+00 
0.0000000e+00 0.0000000e+00 0.0000000e+00 
CELL_DATA 38
FIELD FieldData 0
