# vtk DataFile Version 4.0
vtk output
ASCII
DATASET UNSTRUCTURED_GRID
POINTS 101 float
0.0000000e+00 0.0000000e+00 0.0000000e+00 
0.0000000e+00 2.5000000e-01 0.0000000e+00 
2.5000000e-01 0.0000000e+00 0.0000000e+00 
2.5000000e-01 2.5000000e-01 0.0000000e+00 
0.0000000e+00 5.0000000e-01 0.0000000e+00 
5.0000000e-01 0.0000000e+00 0.0000000e+00 
3.5416666e-01 5.0558227e-01 0.0000000e+00 
6.0416669e-01 2.5558227e-01 0.0000000e+00 
0.0000000e+00 7.5000000e-01 0.0000000e+00 
7.5000000e-01 0.0000000e+00 0.0000000e+00 
2.5000000e-01 7.5000000e-01 0.0000000e+00 
7.0833331e-01 5.1116455e-01 0.0000000e+00 
8.5416669e-01 2.5558227e-01 0.0000000e+00 
6.0416669e-01 7.5558227e-01 0.0000000e+00 
0.0000000e+00 1.0000000e+00 0.0000000e+00 
1.0000000e+00 0.0000000e+00 0.0000000e+00 
2.5000000e-01 1.0000000e+00 0.0000000e+00 
9.7916669e-01 5.3907591e-01 0.0000000e+00 
5.0000000e-01 1.0000000e+00 0.0000000e+00 
8.5416669e-01 7.5558227e-01 0.0000000e+00 
1.1250000e+00 2.8349364e-01 0.0000000e+00 
7.5000000e-01 1.0000000e+00 0.0000000e+00 
1.2500000e+00 0.0000000e+00 0.0000000e+00 
1.1250000e+00 7.8349364e-01 0.0000000e+00 
1.2500000e+00 5.6698728e-01 0.0000000e+00 
1.3750000e+00 2.8349364e-01 0.0000000e+00 
1.0000000e+00 1.0000000e+00 0.0000000e+00 
1.5000000e+00 0.0000000e+00 0.0000000e+00 
1.3750000e+00 7.8349364e-01 0.0000000e+00 
1.2500000e+00 1.0000000e+00 0.0000000e+00 
1.5000000e+00 5.6698728e-01 0.0000000e+00 
1.6250000e+00 2.8349364e-01 0.0000000e+00 
1.7500000e+00 0.0000000e+00 0.0000000e+00 
1.5000000e+00 1.0000000e+00 0.0000000e+00 
1.6250000e+00 7.8349364e-01 0.0000000e+00 
1.7500000e+00 5.6698728e-01 0.0000000e+00 
1.8750000e+00 2.8349364e-01 0.0000000e+00 
2.0000000e+00 0.0000000e+00 0.0000000e+00 
1.7500000e+00 1.0000000e+00 0.0000000e+00 
1.8750000e+00 7.8349364e-01 0.0000000e+00 
2.0000000e+00 5.6698728e-01 0.0000000e+00 
2.1250000e+00 2.8349364e-01 0.0000000e+00 
2.0000000e+00 1.0000000e+00 0.0000000e+00 
2.2500000e+00 0.0000000e+00 0.0000000e+00 
2.1250000e+00 7.8349364e-01 0.0000000e+00 
2.2500000e+00 5.6698728e-01 0.0000000e+00 
2.3750000e+00 2.8349364e-01 0.0000000e+00 
2.2500000e+00 1.0000000e+00 0.0000000e+00 
2.5000000e+00 0.0000000e+00 0.0000000e+00 
2.3750000e+00 7.8349364e-01 0.0000000e+00 
2.5000000e+00 5.6698728e-01 0.0000000e+00 
2.6250000e+00 2.8349364e-01 0.0000000e+00 
2.5000000e+00 1.0000000e+00 0.0000000e+00 
2.6250000e+00 7.8349364e-01 0.0000000e+00 
2.7500000e+00 0.0000000e+00 0.0000000e+00 
2.7500000e+00 5.6698728e-01 0.0000000e+00 
2.8750000e+00 2.8349364e-01 0.0000000e+00 
2.7500000e+00 1.0000000e+00 0.0000000e+00 
2.8750000e+00 7.8349364e-01 0.0000000e+00 
3.0000000e+00 0.0000000e+00 0.0000000e+00 
3.0000000e+00 5.0000000e-01 0.0000000e+00 
3.1250000e+00 2.1650635e-01 0.0000000e+00 
3.0000000e+00 1.0000000e+00 0.0000000e+00 
3.1250000e+00 7.1650636e-01 0.0000000e+00 
3.2500000e+00 0.0000000e+00 0.0000000e+00 
3.2500000e+00 4.3301269e-01 0.0000000e+00 
3.3750000e+00 2.1650635e-01 0.0000000e+00 
3.2500000e+00 1.0000000e+00 0.0000000e+00 
3.3750000e+00 7.1650636e-01 0.0000000e+00 
3.5000000e+00 0.0000000e+00 0.0000000e+00 
3.5000000e+00 4.3301269e-01 0.0000000e+00 
3.6250000e+00 2.1650635e-01 0.0000000e+00 
3.5000000e+00 1.0000000e+00 0.0000000e+00 
3.6250000e+00 7.1650636e-01 0.0000000e+00 
3.7500000e+00 0.0000000e+00 0.0000000e+00 
3.7500000e+00 4.3301269e-01 0.0000000e+00 
3.8750000e+00 2.1650635e-01 0.0000000e+00 
3.7500000e+00 1.0000000e+00 0.0000000e+00 
3.8750000e+00 7.1650636e-01 0.0000000e+00 
4.0000000e+00 0.0000000e+00 0.0000000e+00 
4.0208335e+00 4.6092409e-01 0.0000000e+00 
4.0000000e+00 1.0000000e+00 0.0000000e+00 
4.1458335e+00 2.4441773e-01 0.0000000e+00 
4.1458335e+00 7.4441773e-01 0.0000000e+00 
4.2500000e+00 0.0000000e+00 0.0000000e+00 
4.2916665e+00 4.8883545e-01 0.0000000e+00 
4.2500000e+00 1.0000000e+00 0.0000000e+00 
4.3958335e+00 2.4441773e-01 0.0000000e+00 
4.3958335e+00 7.4441773e-01 0.0000000e+00 
4.5000000e+00 0.0000000e+00 0.0000000e+00 
4.5000000e+00 1.0000000e+00 0.0000000e+00 
4.6458335e+00 4.9441773e-01 0.0000000e+00 
4.7500000e+00 0.0000000e+00 0.0000000e+00 
4.7500000e+00 2.5000000e-01 0.0000000e+00 
4.7500000e+00 7.5000000e-01 0.0000000e+00 
4.7500000e+00 1.0000000e+00 0.0000000e+00 
5.0000000e+00 0.0000000e+00 0.0000000e+00 
5.0000000e+00 2.5000000e-01 0.0000000e+00 
5.0000000e+00 5.0000000e-01 0.0000000e+00 
5.0000000e+00 7.5000000e-01 0.0000000e+00 
5.0000000e+00 1.0000000e+00 0.0000000e+00 

CELLS 38 266
6 0 5 4 2 3 1
6 79 89 85 84 87 82
6 62 52 55 57 53 58
6 85 89 98 87 93 91
6 79 85 75 82 80 76
6 55 52 45 53 49 50
6 75 85 81 80 83 78
6 79 75 69 76 71 74
6 45 52 42 49 47 44
6 55 45 48 50 46 51
6 69 75 65 71 70 66
6 65 75 72 70 73 68
6 69 65 59 66 61 64
6 59 65 55 61 60 56
6 37 48 45 43 46 41
6 100 90 98 95 94 99
6 26 18 11 21 13 19
6 11 18 4 13 10 6
6 26 11 24 19 17 23
6 24 11 15 17 12 20
6 26 24 33 23 28 29
6 33 24 35 28 30 34
6 35 24 27 30 25 31
6 33 35 42 34 39 38
6 42 35 45 39 40 44
6 45 35 37 40 36 41
6 15 27 24 22 25 20
6 96 98 89 97 93 92
6 81 72 75 77 73 78
6 14 4 18 8 10 16
6 5 15 11 9 12 7
6 48 59 55 54 56 51
6 90 81 85 86 83 88
6 27 37 35 32 36 31
6 72 62 65 67 63 68
6 62 55 65 58 60 63
6 90 85 98 88 91 94
6 5 11 4 7 6 3

CELL_TYPES 38
22
22
22
22
22
22
22
22
22
22
22
22
22
22
22
22
22
22
22
22
22
22
22
22
22
22
22
22
22
22
22
22
22
22
22
22
22
22
POINT_DATA 101
FIELD FieldData 1
DISPLACEMENT 3 101  float
0.0000000e+00 0.0000000e+00 0.0000000e+00 
0.0000000e+00 0.0000000e+00 0.0000000e+00 
0.0000000e+00 0.0000000e+00 0.0000000e+00 
-1.1522968e-06 8.8440106e-07 0.0000000e+00 
0.0000000e+00 0.0000000e+00 0.0000000e+00 
0.0000000e+00 0.0000000e+00 0.0000000e+00 
-2.9944565e-06 3.7032398e-06 0.0000000e+00 
-5.2020300e-06 4.3196064e-06 0.0000000e+00 
0.0000000e+00 0.0000000e+00 0.0000000e+00 
0.0000000e+00 0.0000000e+00 0.0000000e+00 
-3.2126425e-06 2.9052774e-06 0.0000000e+00 
-8.2700853e-06 1.2510161e-05 0.0000000e+00 
-1.2334879e-05 7.3805199e-06 0.0000000e+00 
-7.2270700e-06 1.1974622e-05 0.0000000e+00 
0.0000000e+00 0.0000000e+00 0.0000000e+00 
0.0000000e+00 0.0000000e+00 0.0000000e+00 
-6.0325292e-06 3.8119836e-06 0.0000000e+00 
-1.5449035e-05 2.2758768e-05 0.0000000e+00 
-1.1082448e-05 9.7712473e-06 0.0000000e+00 
-8.4678950e-06 2.1865184e-05 0.0000000e+00 
-2.9404877e-05 1.2680760e-05 0.0000000e+00 
-1.2856392e-05 1.8190485e-05 0.0000000e+00 
0.0000000e+00 0.0000000e+00 0.0000000e+00 
-5.9790095e-06 3.7292233e-05 0.0000000e+00 
-2.6827080e-05 3.6749760e-05 0.0000000e+00 
-5.9892136e-05 1.0949221e-05 0.0000000e+00 
-1.0360357e-05 2.9277719e-05 0.0000000e+00 
0.0000000e+00 0.0000000e+00 0.0000000e+00 
2.6524435e-06 4.6558980e-05 0.0000000e+00 
9.6024187e-06 4.1045394e-05 0.0000000e+00 
-5.3289212e-05 3.3182936e-05 0.0000000e+00 
-1.1439766e-04 -6.6755401e-06 0.0000000e+00 
0.0000000e+00 0.0000000e+00 0.0000000e+00 
5.0950213e-05 3.9787672e-05 0.0000000e+00 
1.8952620e-05 3.6096997e-05 0.0000000e+00 
-1.0052993e-04 -4.8747129e-06 0.0000000e+00 
-2.0536741e-04 -7.0657254e-05 0.0000000e+00 
0.0000000e+00 0.0000000e+00 0.0000000e+00 
1.6252423e-04 -5.1963634e-06 0.0000000e+00 
4.2724962e-05 -4.5925783e-05 0.0000000e+00 
-2.0628262e-04 -1.5807917e-04 0.0000000e+00 
-3.3174182e-04 -2.3094020e-04 0.0000000e+00 
3.4061552e-04 -1.5819253e-04 0.0000000e+00 
0.0000000e+00 0.0000000e+00 0.0000000e+00 
5.9146449e-05 -3.0387490e-04 0.0000000e+00 
-3.7866065e-04 -5.7384616e-04 0.0000000e+00 
-4.5123397e-04 -5.4122676e-04 0.0000000e+00 
7.2455616e-04 -6.0185068e-04 0.0000000e+00 
0.0000000e+00 0.0000000e+00 0.0000000e+00 
1.7457874e-05 -9.5618208e-04 0.0000000e+00 
-5.2260695e-04 -1.4179844e-03 0.0000000e+00 
-4.6193349e-04 -1.0045134e-03 0.0000000e+00 
1.2420040e-03 -1.5254469e-03 0.0000000e+00 
-2.7588021e-04 -2.6259334e-03 0.0000000e+00 
0.0000000e+00 0.0000000e+00 0.0000000e+00 
-4.6220399e-04 -2.6755065e-03 0.0000000e+00 
-2.3455330e-04 -1.3975451e-03 0.0000000e+00 
1.2077175e-03 -4.7568362e-03 0.0000000e+00 
-4.8904668e-04 -5.5229990e-03 0.0000000e+00 
0.0000000e+00 0.0000000e+00 0.0000000e+00 
2.0520958e-05 -2.9399646e-03 0.0000000e+00 
9.8319128e-05 -1.0539321e-03 0.0000000e+00 
-1.2519503e-04 -1.0333987e-02 0.0000000e+00 
5.4637826e-04 -4.6129245e-03 0.0000000e+00 
0.0000000e+00 0.0000000e+00 0.0000000e+00 
2.7119883e-04 -1.9174380e-03 0.0000000e+00 
2.3444135e-04 -8.1175187e-04 0.0000000e+00 
-9.0351229e-04 -3.9615477e-03 0.0000000e+00 
3.1019846e-04 -2.4301391e-03 0.0000000e+00 
0.0000000e+00 0.0000000e+00 0.0000000e+00 
3.2622620e-04 -1.3565449e-03 0.0000000e+00 
2.3649530e-04 -6.1451562e-04 0.0000000e+00 
-7.2166685e-04 -1.9176813e-03 0.0000000e+00 
-1.0001178e-05 -1.6624940e-03 0.0000000e+00 
0.0000000e+00 0.0000000e+00 0.0000000e+00 
2.9202676e-04 -1.0776815e-03 0.0000000e+00 
2.1718456e-04 -5.0248060e-04 0.0000000e+00 
-3.6101777e-04 -2.1327850e-03 0.0000000e+00 
-1.1661524e-04 -1.8532964e-03 0.0000000e+00 
0.0000000e+00 0.0000000e+00 0.0000000e+00 
2.5004346e-04 -9.5773354e-04 0.0000000e+00 
-3.9496753e-04 -3.4966934e-03 0.0000000e+00 
2.3686720e-04 -4.0728887e-04 0.0000000e+00 
1.8392276e-04 -1.5078058e-03 0.0000000e+00 
0.0000000e+00 0.0000000e+00 0.0000000e+00 
2.4254087e-04 -5.8183447e-04 0.0000000e+00 
-5.7357358e-04 -1.1922874e-03 0.0000000e+00 
1.9876061e-04 -2.3740168e-04 0.0000000e+00 
8.0390215e-05 -5.8195362e-04 0.0000000e+00 
0.0000000e+00 0.0000000e+00 0.0000000e+00 
-4.0186098e-04 -3.9832472e-04 0.0000000e+00 
1.4435375e-04 -1.6652393e-04 0.0000000e+00 
0.0000000e+00 0.0000000e+00 0.0000000e+00 
9.0508031e-05 -6.9196722e-05 0.0000000e+00 
-3.3878330e-06 -7.8506077e-05 0.0000000e+00 
-1.9551453e-04 -1.0427999e-04 0.0000000e+00 
0.0000000e+00 0.0000000e+00 0.0000000e+00 
0.0000000e+00 0.0000000e+00 0.0000000e+00 
0.0000000e+00 0.0000000e+00 0.0000000e+00 
0.0000000e+00 0.0000000e+00 0.0000000e+00 
0.0000000e+00 0.0000000e+00 0.0000000e+00 
CELL_DATA 38
FIELD FieldData 0
