# vtk DataFile Version 4.0
vtk output
ASCII
DATASET UNSTRUCTURED_GRID
POINTS 101 float
0.0000000e+00 0.0000000e+00 0.0000000e+00 
0.0000000e+00 2.5000000e-01 0.0000000e+00 
2.5000000e-01 0.0000000e+00 0.0000000e+00 
2.5000000e-01 2.5000000e-01 0.0000000e+00 
0.0000000e+00 5.0000000e-01 0.0000000e+00 
5.0000000e-01 0.0000000e+00 0.0000000e+00 
3.5416666e-01 5.0558227e-01 0.0000000e+00 
6.0416669e-01 2.5558227e-01 0.0000000e+00 
0.0000000e+00 7.5000000e-01 0.0000000e+00 
7.5000000e-01 0.0000000e+00 0.0000000e+00 
2.5000000e-01 7.5000000e-01 0.0000000e+00 
7.0833331e-01 5.1116455e-01 0.0000000e+00 
8.5416669e-01 2.5558227e-01 0.0000000e+00 
6.0416669e-01 7.5558227e-01 0.0000000e+00 
0.0000000e+00 1.0000000e+00 0.0000000e+00 
1.0000000e+00 0.0000000e+00 0.0000000e+00 
2.5000000e-01 1.0000000e+00 0.0000000e+00 
9.7916669e-01 5.3907591e-01 0.0000000e+00 
5.0000000e-01 1.0000000e+00 0.0000000e+00 
8.5416669e-01 7.5558227e-01 0.0000000e+00 
1.1250000e+00 2.8349364e-01 0.0000000e+00 
7.5000000e-01 1.0000000e+00 0.0000000e+00 
1.2500000e+00 0.0000000e+00 0.0000000e+00 
1.1250000e+00 7.8349364e-01 0.0000000e+00 
1.2500000e+00 5.6698728e-01 0.0000000e+00 
1.3750000e+00 2.8349364e-01 0.0000000e+00 
1.0000000e+00 1.0000000e+00 0.0000000e+00 
1.5000000e+00 0.0000000e+00 0.0000000e+00 
1.3750000e+00 7.8349364e-01 0.0000000e+00 
1.2500000e+00 1.0000000e+00 0.0000000e+00 
1.5000000e+00 5.6698728e-01 0.0000000e+00 
1.6250000e+00 2.8349364e-01 0.0000000e+00 
1.7500000e+00 0.0000000e+00 0.0000000e+00 
1.5000000e+00 1.0000000e+00 0.0000000e+00 
1.6250000e+00 7.8349364e-01 0.0000000e+00 
1.7500000e+00 5.6698728e-01 0.0000000e+00 
1.8750000e+00 2.8349364e-01 0.0000000e+00 
2.0000000e+00 0.0000000e+00 0.0000000e+00 
1.7500000e+00 1.0000000e+00 0.0000000e+00 
1.8750000e+00 7.8349364e-01 0.0000000e+00 
2.0000000e+00 5.6698728e-01 0.0000000e+00 
2.1250000e+00 2.8349364e-01 0.0000000e+00 
2.0000000e+00 1.0000000e+00 0.0000000e+00 
2.2500000e+00 0.0000000e+00 0.0000000e+00 
2.1250000e+00 7.8349364e-01 0.0000000e+00 
2.2500000e+00 5.6698728e-01 0.0000000e+00 
2.3750000e+00 2.8349364e-01 0.0000000e+00 
2.2500000e+00 1.0000000e+00 0.0000000e+00 
2.5000000e+00 0.0000000e+00 0.0000000e+00 
2.3750000e+00 7.8349364e-01 0.0000000e+00 
2.5000000e+00 5.6698728e-01 0.0000000e+00 
2.6250000e+00 2.8349364e-01 0.0000000e+00 
2.5000000e+00 1.0000000e+00 0.0000000e+00 
2.6250000e+00 7.8349364e-01 0.0000000e+00 
2.7500000e+00 0.0000000e+00 0.0000000e+00 
2.7500000e+00 5.6698728e-01 0.0000000e+00 
2.8750000e+00 2.8349364e-01 0.0000000e+00 
2.7500000e+00 1.0000000e+00 0.0000000e+00 
2.8750000e+00 7.8349364e-01 0.0000000e+00 
3.0000000e+00 0.0000000e+00 0.0000000e+00 
3.0000000e+00 5.0000000e-01 0.0000000e+00 
3.1250000e+00 2.1650635e-01 0.0000000e+00 
3.0000000e+00 1.0000000e+00 0.0000000e+00 
3.1250000e+00 7.1650636e-01 0.0000000e+00 
3.2500000e+00 0.0000000e+00 0.0000000e+00 
3.2500000e+00 4.3301269e-01 0.0000000e+00 
3.3750000e+00 2.1650635e-01 0.0000000e+00 
3.2500000e+00 1.0000000e+00 0.0000000e+00 
3.3750000e+00 7.1650636e-01 0.0000000e+00 
3.5000000e+00 0.0000000e+00 0.0000000e+00 
3.5000000e+00 4.3301269e-01 0.0000000e+00 
3.6250000e+00 2.1650635e-01 0.0000000e+00 
3.5000000e+00 1.0000000e+00 0.0000000e+00 
3.6250000e+00 7.1650636e-01 0.0000000e+00 
3.7500000e+00 0.0000000e+00 0.0000000e+00 
3.7500000e+00 4.3301269e-01 0.0000000e+00 
3.8750000e+00 2.1650635e-01 0.0000000e+00 
3.7500000e+00 1.0000000e+00 0.0000000e+00 
3.8750000e+00 7.1650636e-01 0.0000000e+00 
4.0000000e+00 0.0000000e+00 0.0000000e+00 
4.0208335e+00 4.6092409e-01 0.0000000e+00 
4.0000000e+00 1.0000000e+00 0.0000000e+00 
4.1458335e+00 2.4441773e-01 0.0000000e+00 
4.1458335e+00 7.4441773e-01 0.0000000e+00 
4.2500000e+00 0.0000000e+00 0.0000000e+00 
4.2916665e+00 4.8883545e-01 0.0000000e+00 
4.2500000e+00 1.0000000e+00 0.0000000e+00 
4.3958335e+00 2.4441773e-01 0.0000000e+00 
4.3958335e+00 7.4441773e-01 0.0000000e+00 
4.5000000e+00 0.0000000e+00 0.0000000e+00 
4.5000000e+00 1.0000000e+00 0.0000000e+00 
4.6458335e+00 4.9441773e-01 0.0000000e+00 
4.7500000e+00 0.0000000e+00 0.0000000e+00 
4.7500000e+00 2.5000000e-01 0.0000000e+00 
4.7500000e+00 7.5000000e-01 0.0000000e+00 
4.7500000e+00 1.0000000e+00 0.0000000e+00 
5.0000000e+00 0.0000000e+00 0.0000000e+00 
5.0000000e+00 2.5000000e-01 0.0000000e+00 
5.0000000e+00 5.0000000e-01 0.0000000e+00 
5.0000000e+00 7.5000000e-01 0.0000000e+00 
5.0000000e+00 1.0000000e+00 0.0000000e+00 

CELLS 38 266
6 0 5 4 2 3 1
6 79 89 85 84 87 82
6 62 52 55 57 53 58
6 85 89 98 87 93 91
6 79 85 75 82 80 76
6 55 52 45 53 49 50
6 75 85 81 80 83 78
6 79 75 69 76 71 74
6 45 52 42 49 47 44
6 55 45 48 50 46 51
6 69 75 65 71 70 66
6 65 75 72 70 73 68
6 69 65 59 66 61 64
6 59 65 55 61 60 56
6 37 48 45 43 46 41
6 100 90 98 95 94 99
6 26 18 11 21 13 19
6 11 18 4 13 10 6
6 26 11 24 19 17 23
6 24 11 15 17 12 20
6 26 24 33 23 28 29
6 33 24 35 28 30 34
6 35 24 27 30 25 31
6 33 35 42 34 39 38
6 42 35 45 39 40 44
6 45 35 37 40 36 41
6 15 27 24 22 25 20
6 96 98 89 97 93 92
6 81 72 75 77 73 78
6 14 4 18 8 10 16
6 5 15 11 9 12 7
6 48 59 55 54 56 51
6 90 81 85 86 83 88
6 27 37 35 32 36 31
6 72 62 65 67 63 68
6 62 55 65 58 60 63
6 90 85 98 88 91 94
6 5 11 4 7 6 3

CELL_TYPES 38
22
22
22
22
22
22
22
22
22
22
22
22
22
22
22
22
22
22
22
22
22
22
22
22
22
22
22
22
22
22
22
22
22
22
22
22
22
22
POINT_DATA 101
FIELD FieldData 1
DISPLACEMENT 3 101  float
0.0000000e+00 0.0000000e+00 0.0000000e+00 
0.0000000e+00 0.0000000e+00 0.0000000e+00 
0.0000000e+00 0.0000000e+00 0.0000000e+00 
-2.2923853e-04 -2.6421150e-04 0.0000000e+00 
0.0000000e+00 0.0000000e+00 0.0000000e+00 
0.0000000e+00 0.0000000e+00 0.0000000e+00 
-3.8861120e-04 -6.9034094e-04 0.0000000e+00 
-3.8302314e-04 -8.3503756e-04 0.0000000e+00 
0.0000000e+00 0.0000000e+00 0.0000000e+00 
0.0000000e+00 0.0000000e+00 0.0000000e+00 
5.8288474e-06 -3.6463395e-04 0.0000000e+00 
-4.5508129e-04 -2.1080086e-03 0.0000000e+00 
-2.2504936e-04 -1.2079347e-03 0.0000000e+00 
-3.0459397e-04 -2.2647937e-03 0.0000000e+00 
0.0000000e+00 0.0000000e+00 0.0000000e+00 
0.0000000e+00 0.0000000e+00 0.0000000e+00 
6.2793808e-04 -4.3327705e-04 0.0000000e+00 
-4.3022268e-05 -3.1846485e-03 0.0000000e+00 
1.2190638e-03 -1.4567901e-03 0.0000000e+00 
-4.9115118e-04 -4.9981256e-03 0.0000000e+00 
1.5564886e-04 -1.3723078e-03 0.0000000e+00 
1.2366861e-03 -4.6998668e-03 0.0000000e+00 
0.0000000e+00 0.0000000e+00 0.0000000e+00 
6.2958291e-04 -5.2117528e-03 0.0000000e+00 
3.8069155e-04 -2.5312100e-03 0.0000000e+00 
3.0030738e-04 -1.0653349e-03 0.0000000e+00 
-1.8513350e-05 -1.0367954e-02 0.0000000e+00 
0.0000000e+00 0.0000000e+00 0.0000000e+00 
2.1600406e-04 -2.4523330e-03 0.0000000e+00 
-1.0036154e-03 -3.8100146e-03 0.0000000e+00 
3.0303889e-04 -1.6590055e-03 0.0000000e+00 
2.6709418e-04 -7.9300499e-04 0.0000000e+00 
0.0000000e+00 0.0000000e+00 0.0000000e+00 
-6.4608239e-04 -1.9186658e-03 0.0000000e+00 
-9.5010262e-05 -1.7087139e-03 0.0000000e+00 
1.8574257e-04 -1.3686169e-03 0.0000000e+00 
2.3872097e-04 -6.5259240e-04 0.0000000e+00 
0.0000000e+00 0.0000000e+00 0.0000000e+00 
-2.2567427e-04 -2.1087029e-03 0.0000000e+00 
-2.0706204e-04 -2.0995813e-03 0.0000000e+00 
2.0924762e-04 -1.2644444e-03 0.0000000e+00 
2.6744197e-04 -4.9918989e-04 0.0000000e+00 
-3.5338526e-04 -3.6213654e-03 0.0000000e+00 
0.0000000e+00 0.0000000e+00 0.0000000e+00 
1.6360659e-04 -1.7440154e-03 0.0000000e+00 
2.5745429e-04 -7.8673835e-04 0.0000000e+00 
2.4901409e-04 -3.0216866e-04 0.0000000e+00 
-5.6358927e-04 -1.2079941e-03 0.0000000e+00 
0.0000000e+00 0.0000000e+00 0.0000000e+00 
5.1648607e-05 -6.7885331e-04 0.0000000e+00 
2.0379717e-04 -3.6590185e-04 0.0000000e+00 
1.8960582e-04 -1.4391768e-04 0.0000000e+00 
-3.9946206e-04 -4.3380586e-04 0.0000000e+00 
-3.6307681e-06 -2.3533082e-04 0.0000000e+00 
0.0000000e+00 0.0000000e+00 0.0000000e+00 
1.3197964e-04 -1.2752181e-04 0.0000000e+00 
1.2581238e-04 -5.3164371e-05 0.0000000e+00 
-2.1535571e-04 -1.3640986e-04 0.0000000e+00 
-7.6713795e-06 -5.1116622e-05 0.0000000e+00 
0.0000000e+00 0.0000000e+00 0.0000000e+00 
9.0272806e-05 -2.4226025e-05 0.0000000e+00 
6.5415297e-05 -1.1612019e-05 0.0000000e+00 
-8.4688902e-05 -1.8115106e-05 0.0000000e+00 
1.6465627e-05 7.7280356e-06 0.0000000e+00 
0.0000000e+00 0.0000000e+00 0.0000000e+00 
5.5120712e-05 6.2612708e-06 0.0000000e+00 
3.5023648e-05 1.0993813e-06 0.0000000e+00 
-3.2883367e-05 1.5692860e-05 0.0000000e+00 
1.4019340e-05 2.2267370e-05 0.0000000e+00 
0.0000000e+00 0.0000000e+00 0.0000000e+00 
3.0258541e-05 1.2230446e-05 0.0000000e+00 
1.7803308e-05 3.6164329e-06 0.0000000e+00 
-3.1011908e-07 2.2268521e-05 0.0000000e+00 
1.2004841e-05 1.9387136e-05 0.0000000e+00 
0.0000000e+00 0.0000000e+00 0.0000000e+00 
1.5406946e-05 1.0451362e-05 0.0000000e+00 
8.6160035e-06 3.2948387e-06 0.0000000e+00 
8.8046763e-06 1.7230925e-05 0.0000000e+00 
9.9931376e-06 1.3021933e-05 0.0000000e+00 
0.0000000e+00 0.0000000e+00 0.0000000e+00 
8.5257407e-06 6.4197679e-06 0.0000000e+00 
1.2091402e-05 1.1108446e-05 0.0000000e+00 
4.3974073e-06 2.0696737e-06 0.0000000e+00 
7.8705389e-06 7.0130359e-06 0.0000000e+00 
0.0000000e+00 0.0000000e+00 0.0000000e+00 
4.6896953e-06 3.2722839e-06 0.0000000e+00 
9.8714427e-06 6.1514634e-06 0.0000000e+00 
2.2027989e-06 9.4003360e-07 0.0000000e+00 
5.5976948e-06 3.3167510e-06 0.0000000e+00 
0.0000000e+00 0.0000000e+00 0.0000000e+00 
6.8505678e-06 3.0910508e-06 0.0000000e+00 
2.0405994e-06 6.1013264e-07 0.0000000e+00 
0.0000000e+00 0.0000000e+00 0.0000000e+00 
7.1451444e-07 -7.9136724e-09 0.0000000e+00 
2.2867252e-06 6.1025833e-07 0.0000000e+00 
3.3939546e-06 1.2364670e-06 0.0000000e+00 
0.0000000e+00 0.0000000e+00 0.0000000e+00 
0.0000000e+00 0.0000000e+00 0.0000000e+00 
0.0000000e+00 0.0000000e+00 0.0000000e+00 
0.0000000e+00 0.0000000e+00 0.0000000e+00 
0.0000000e+00 0.0000000e+00 0.0000000e+00 
CELL_DATA 38
FIELD FieldData 0
