# vtk DataFile Version 4.0
vtk output
ASCII
DATASET UNSTRUCTURED_GRID
POINTS 101 float
0.0000000e+00 0.0000000e+00 0.0000000e+00 
0.0000000e+00 2.5000000e-01 0.0000000e+00 
2.5000000e-01 0.0000000e+00 0.0000000e+00 
2.5000000e-01 2.5000000e-01 0.0000000e+00 
0.0000000e+00 5.0000000e-01 0.0000000e+00 
5.0000000e-01 0.0000000e+00 0.0000000e+00 
3.5416666e-01 5.0558227e-01 0.0000000e+00 
6.0416669e-01 2.5558227e-01 0.0000000e+00 
0.0000000e+00 7.5000000e-01 0.0000000e+00 
7.5000000e-01 0.0000000e+00 0.0000000e+00 
2.5000000e-01 7.5000000e-01 0.0000000e+00 
7.0833331e-01 5.1116455e-01 0.0000000e+00 
8.5416669e-01 2.5558227e-01 0.0000000e+00 
6.0416669e-01 7.5558227e-01 0.0000000e+00 
0.0000000e+00 1.0000000e+00 0.0000000e+00 
1.0000000e+00 0.0000000e+00 0.0000000e+00 
2.5000000e-01 1.0000000e+00 0.0000000e+00 
9.7916669e-01 5.3907591e-01 0.0000000e+00 
5.0000000e-01 1.0000000e+00 0.0000000e+00 
8.5416669e-01 7.5558227e-01 0.0000000e+00 
1.1250000e+00 2.8349364e-01 0.0000000e+00 
7.5000000e-01 1.0000000e+00 0.0000000e+00 
1.2500000e+00 0.0000000e+00 0.0000000e+00 
1.1250000e+00 7.8349364e-01 0.0000000e+00 
1.2500000e+00 5.6698728e-01 0.0000000e+00 
1.3750000e+00 2.8349364e-01 0.0000000e+00 
1.0000000e+00 1.0000000e+00 0.0000000e+00 
1.5000000e+00 0.0000000e+00 0.0000000e+00 
1.3750000e+00 7.8349364e-01 0.0000000e+00 
1.2500000e+00 1.0000000e+00 0.0000000e+00 
1.5000000e+00 5.6698728e-01 0.0000000e+00 
1.6250000e+00 2.8349364e-01 0.0000000e+00 
1.7500000e+00 0.0000000e+00 0.0000000e+00 
1.5000000e+00 1.0000000e+00 0.0000000e+00 
1.6250000e+00 7.8349364e-01 0.0000000e+00 
1.7500000e+00 5.6698728e-01 0.0000000e+00 
1.8750000e+00 2.8349364e-01 0.0000000e+00 
2.0000000e+00 0.0000000e+00 0.0000000e+00 
1.7500000e+00 1.0000000e+00 0.0000000e+00 
1.8750000e+00 7.8349364e-01 0.0000000e+00 
2.0000000e+00 5.6698728e-01 0.0000000e+00 
2.1250000e+00 2.8349364e-01 0.0000000e+00 
2.0000000e+00 1.0000000e+00 0.0000000e+00 
2.2500000e+00 0.0000000e+00 0.0000000e+00 
2.1250000e+00 7.8349364e-01 0.0000000e+00 
2.2500000e+00 5.6698728e-01 0.0000000e+00 
2.3750000e+00 2.8349364e-01 0.0000000e+00 
2.2500000e+00 1.0000000e+00 0.0000000e+00 
2.5000000e+00 0.0000000e+00 0.0000000e+00 
2.3750000e+00 7.8349364e-01 0.0000000e+00 
2.5000000e+00 5.6698728e-01 0.0000000e+00 
2.6250000e+00 2.8349364e-01 0.0000000e+00 
2.5000000e+00 1.0000000e+00 0.0000000e+00 
2.6250000e+00 7.8349364e-01 0.0000000e+00 
2.7500000e+00 0.0000000e+00 0.0000000e+00 
2.7500000e+00 5.6698728e-01 0.0000000e+00 
2.8750000e+00 2.8349364e-01 0.0000000e+00 
2.7500000e+00 1.0000000e+00 0.0000000e+00 
2.8750000e+00 7.8349364e-01 0.0000000e+00 
3.0000000e+00 0.0000000e+00 0.0000000e+00 
3.0000000e+00 5.0000000e-01 0.0000000e+00 
3.1250000e+00 2.1650635e-01 0.0000000e+00 
3.0000000e+00 1.0000000e+00 0.0000000e+00 
3.1250000e+00 7.1650636e-01 0.0000000e+00 
3.2500000e+00 0.0000000e+00 0.0000000e+00 
3.2500000e+00 4.3301269e-01 0.0000000e+00 
3.3750000e+00 2.1650635e-01 0.0000000e+00 
3.2500000e+00 1.0000000e+00 0.0000000e+00 
3.3750000e+00 7.1650636e-01 0.0000000e+00 
3.5000000e+00 0.0000000e+00 0.0000000e+00 
3.5000000e+00 4.3301269e-01 0.0000000e+00 
3.6250000e+00 2.1650635e-01 0.0000000e+00 
3.5000000e+00 1.0000000e+00 0.0000000e+00 
3.6250000e+00 7.1650636e-01 0.0000000e+00 
3.7500000e+00 0.0000000e+00 0.0000000e+00 
3.7500000e+00 4.3301269e-01 0.0000000e+00 
3.8750000e+00 2.1650635e-01 0.0000000e+00 
3.7500000e+00 1.0000000e+00 0.0000000e+00 
3.8750000e+00 7.1650636e-01 0.0000000e+00 
4.0000000e+00 0.0000000e+00 0.0000000e+00 
4.0208335e+00 4.6092409e-01 0.0000000e+00 
4.0000000e+00 1.0000000e+00 0.0000000e+00 
4.1458335e+00 2.4441773e-01 0.0000000e+00 
4.1458335e+00 7.4441773e-01 0.0000000e+00 
4.2500000e+00 0.0000000e+00 0.0000000e+00 
4.2916665e+00 4.8883545e-01 0.0000000e+00 
4.2500000e+00 1.0000000e+00 0.0000000e+00 
4.3958335e+00 2.4441773e-01 0.0000000e+00 
4.3958335e+00 7.4441773e-01 0.0000000e+00 
4.5000000e+00 0.0000000e+00 0.0000000e+00 
4.5000000e+00 1.0000000e+00 0.0000000e+00 
4.6458335e+00 4.9441773e-01 0.0000000e+00 
4.7500000e+00 0.0000000e+00 0.0000000e+00 
4.7500000e+00 2.5000000e-01 0.0000000e+00 
4.7500000e+00 7.5000000e-01 0.0000000e+00 
4.7500000e+00 1.0000000e+00 0.0000000e+00 
5.0000000e+00 0.0000000e+00 0.0000000e+00 
5.0000000e+00 2.5000000e-01 0.0000000e+00 
5.0000000e+00 5.0000000e-01 0.0000000e+00 
5.0000000e+00 7.5000000e-01 0.0000000e+00 
5.0000000e+00 1.0000000e+00 0.0000000e+00 

CELLS 38 266
6 0 5 4 2 3 1
6 79 89 85 84 87 82
6 62 52 55 57 53 58
6 85 89 98 87 93 91
6 79 85 75 82 80 76
6 55 52 45 53 49 50
6 75 85 81 80 83 78
6 79 75 69 76 71 74
6 45 52 42 49 47 44
6 55 45 48 50 46 51
6 69 75 65 71 70 66
6 65 75 72 70 73 68
6 69 65 59 66 61 64
6 59 65 55 61 60 56
6 37 48 45 43 46 41
6 100 90 98 95 94 99
6 26 18 11 21 13 19
6 11 18 4 13 10 6
6 26 11 24 19 17 23
6 24 11 15 17 12 20
6 26 24 33 23 28 29
6 33 24 35 28 30 34
6 35 24 27 30 25 31
6 33 35 42 34 39 38
6 42 35 45 39 40 44
6 45 35 37 40 36 41
6 15 27 24 22 25 20
6 96 98 89 97 93 92
6 81 72 75 77 73 78
6 14 4 18 8 10 16
6 5 15 11 9 12 7
6 48 59 55 54 56 51
6 90 81 85 86 83 88
6 27 37 35 32 36 31
6 72 62 65 67 63 68
6 62 55 65 58 60 63
6 90 85 98 88 91 94
6 5 11 4 7 6 3

CELL_TYPES 38
22
22
22
22
22
22
22
22
22
22
22
22
22
22
22
22
22
22
22
22
22
22
22
22
22
22
22
22
22
22
22
22
22
22
22
22
22
22
POINT_DATA 101
FIELD FieldData 2
DISPLACEMENT 3 101  float
0.0000000e+00 0.0000000e+00 0.0000000e+00 
0.0000000e+00 0.0000000e+00 0.0000000e+00 
0.0000000e+00 0.0000000e+00 0.0000000e+00 
-2.3278533e-06 1.5698533e-06 0.0000000e+00 
0.0000000e+00 0.0000000e+00 0.0000000e+00 
0.0000000e+00 0.0000000e+00 0.0000000e+00 
-1.3128380e-05 -2.0788170e-06 0.0000000e+00 
-1.4906942e-05 -1.4100635e-05 0.0000000e+00 
0.0000000e+00 0.0000000e+00 0.0000000e+00 
0.0000000e+00 0.0000000e+00 0.0000000e+00 
2.1515293e-06 1.4126434e-05 0.0000000e+00 
-2.6449519e-05 -2.5648478e-05 0.0000000e+00 
-5.3150443e-06 3.2498123e-05 0.0000000e+00 
-2.7264296e-05 -3.1786803e-05 0.0000000e+00 
0.0000000e+00 0.0000000e+00 0.0000000e+00 
0.0000000e+00 0.0000000e+00 0.0000000e+00 
3.2893811e-06 1.4653498e-05 0.0000000e+00 
1.5714362e-05 9.5451433e-05 0.0000000e+00 
-5.7845587e-06 -4.0004520e-06 0.0000000e+00 
-2.0370865e-06 4.0145813e-05 0.0000000e+00 
-6.2166109e-05 2.8518463e-05 0.0000000e+00 
-4.7733458e-05 -1.7619306e-05 0.0000000e+00 
0.0000000e+00 0.0000000e+00 0.0000000e+00 
3.0750070e-05 9.8151751e-05 0.0000000e+00 
-3.8868253e-05 3.2682423e-05 0.0000000e+00 
-1.5777753e-04 -6.1293300e-05 0.0000000e+00 
3.1674124e-06 9.3626011e-05 0.0000000e+00 
0.0000000e+00 0.0000000e+00 0.0000000e+00 
3.7541868e-05 4.0214047e-05 0.0000000e+00 
7.9526362e-05 6.2091960e-05 0.0000000e+00 
-1.1005474e-04 -2.9749410e-05 0.0000000e+00 
-2.1369454e-04 -7.8839454e-05 0.0000000e+00 
0.0000000e+00 0.0000000e+00 0.0000000e+00 
1.8162647e-04 8.7307859e-07 0.0000000e+00 
5.1700521e-05 -6.1516716e-05 0.0000000e+00 
-2.0032481e-04 -1.7536442e-04 0.0000000e+00 
-3.1482070e-04 -2.1074525e-04 0.0000000e+00 
0.0000000e+00 0.0000000e+00 0.0000000e+00 
3.7924905e-04 -1.8916118e-04 0.0000000e+00 
7.1110597e-05 -3.1134885e-04 0.0000000e+00 
-3.4839319e-04 -5.3141481e-04 0.0000000e+00 
-4.4421997e-04 -5.2471622e-04 0.0000000e+00 
7.1076408e-04 -5.9365050e-04 0.0000000e+00 
0.0000000e+00 0.0000000e+00 0.0000000e+00 
2.8695706e-05 -9.8406838e-04 0.0000000e+00 
-5.7824788e-04 -1.3952880e-03 0.0000000e+00 
-4.8069932e-04 -1.0133645e-03 0.0000000e+00 
1.1583831e-03 -1.7272994e-03 0.0000000e+00 
0.0000000e+00 0.0000000e+00 0.0000000e+00 
-1.3965064e-04 -2.5563636e-03 0.0000000e+00 
-5.6907954e-04 -2.7116230e-03 0.0000000e+00 
-2.4907629e-04 -1.4071413e-03 0.0000000e+00 
1.3672244e-03 -4.4323560e-03 0.0000000e+00 
-2.7826833e-04 -4.9811699e-03 0.0000000e+00 
0.0000000e+00 0.0000000e+00 0.0000000e+00 
-4.8499965e-05 -3.4986010e-03 0.0000000e+00 
1.4047776e-04 -1.4272842e-03 0.0000000e+00 
4.6655394e-05 -8.4322514e-03 0.0000000e+00 
3.7726731e-04 -4.7499444e-03 0.0000000e+00 
0.0000000e+00 0.0000000e+00 0.0000000e+00 
3.7023693e-04 -2.3352075e-03 0.0000000e+00 
2.6049747e-04 -8.3360454e-04 0.0000000e+00 
-1.0577957e-03 -3.6509002e-03 0.0000000e+00 
2.5034422e-04 -2.3887206e-03 0.0000000e+00 
0.0000000e+00 0.0000000e+00 0.0000000e+00 
3.7548054e-04 -1.4016631e-03 0.0000000e+00 
2.3769490e-04 -6.5564091e-04 0.0000000e+00 
-6.6312548e-04 -2.0534061e-03 0.0000000e+00 
3.1851629e-05 -1.6176642e-03 0.0000000e+00 
0.0000000e+00 0.0000000e+00 0.0000000e+00 
2.2342622e-04 -1.0718589e-03 0.0000000e+00 
2.3085618e-04 -4.6532231e-04 0.0000000e+00 
-2.5712364e-04 -2.0009039e-03 0.0000000e+00 
-5.4288474e-05 -1.6811575e-03 0.0000000e+00 
0.0000000e+00 0.0000000e+00 0.0000000e+00 
2.8799116e-04 -8.4720657e-04 0.0000000e+00 
2.2810251e-04 -3.5044659e-04 0.0000000e+00 
-3.7980612e-04 -2.8106442e-03 0.0000000e+00 
1.8035133e-04 -1.3037109e-03 0.0000000e+00 
0.0000000e+00 0.0000000e+00 0.0000000e+00 
2.8490211e-04 -6.3323230e-04 0.0000000e+00 
-5.0636393e-04 -1.1337001e-03 0.0000000e+00 
1.9270604e-04 -3.0201403e-04 0.0000000e+00 
3.3260625e-05 -6.5113290e-04 0.0000000e+00 
0.0000000e+00 0.0000000e+00 0.0000000e+00 
1.7749528e-04 -3.5726090e-04 0.0000000e+00 
-4.1603390e-04 -5.1299570e-04 0.0000000e+00 
1.7526196e-04 -1.2149281e-04 0.0000000e+00 
-6.7272822e-06 -2.5043465e-04 0.0000000e+00 
0.0000000e+00 0.0000000e+00 0.0000000e+00 
-2.4683258e-04 -1.4054962e-04 0.0000000e+00 
1.1874560e-04 -9.6856147e-06 0.0000000e+00 
0.0000000e+00 0.0000000e+00 0.0000000e+00 
8.2860250e-05 3.1952538e-06 0.0000000e+00 
-2.8894890e-06 2.3486940e-05 0.0000000e+00 
-1.0321588e-04 -7.3109584e-07 0.0000000e+00 
0.0000000e+00 0.0000000e+00 0.0000000e+00 
0.0000000e+00 0.0000000e+00 0.0000000e+00 
0.0000000e+00 0.0000000e+00 0.0000000e+00 
0.0000000e+00 0.0000000e+00 0.0000000e+00 
0.0000000e+00 0.0000000e+00 0.0000000e+00 
TOTAL_DISPLACEMENT 3 101  float
0.0000000e+00 0.0000000e+00 0.0000000e+00 
0.0000000e+00 0.0000000e+00 0.0000000e+00 
0.0000000e+00 0.0000000e+00 0.0000000e+00 
0.0000000e+00 0.0000000e+00 0.0000000e+00 
0.0000000e+00 0.0000000e+00 0.0000000e+00 
0.0000000e+00 0.0000000e+00 0.0000000e+00 
0.0000000e+00 0.0000000e+00 0.0000000e+00 
0.0000000e+00 0.0000000e+00 0.0000000e+00 
0.0000000e+00 0.0000000e+00 0.0000000e+00 
0.0000000e+00 0.0000000e+00 0.0000000e+00 
0.0000000e+00 0.0000000e+00 0.0000000e+00 
0.0000000e+00 0.0000000e+00 0.0000000e+00 
0.0000000e+00 0.0000000e+00 0.0000000e+00 
0.0000000e+00 0.0000000e+00 0.0000000e+00 
0.0000000e+00 0.0000000e+00 0.0000000e+00 
0.0000000e+00 0.0000000e+00 0.0000000e+00 
0.0000000e+00 0.0000000e+00 0.0000000e+00 
0.0000000e+00 0.0000000e+00 0.0000000e+00 
0.0000000e+00 0.0000000e+00 0.0000000e+00 
0.0000000e+00 0.0000000e+00 0.0000000e+00 
0.0000000e+00 0.0000000e+00 0.0000000e+00 
0.0000000e+00 0.0000000e+00 0.0000000e+00 
0.0000000e+00 0.0000000e+00 0.0000000e+00 
0.0000000e+00 0.0000000e+00 0.0000000e+00 
0.0000000e+00 0.0000000e+00 0.0000000e+00 
0.0000000e+00 0.0000000e+00 0.0000000e+00 
0.0000000e+00 0.0000000e+00 0.0000000e+00 
0.0000000e+00 0.0000000e+00 0.0000000e+00 
0.0000000e+00 0.0000000e+00 0.0000000e+00 
0.0000000e+00 0.0000000e+00 0.0000000e+00 
0.0000000e+00 0.0000000e+00 0.0000000e+00 
0.0000000e+00 0.0000000e+00 0.0000000e+00 
0.0000000e+00 0.0000000e+00 0.0000000e+00 
0.0000000e+00 0.0000000e+00 0.0000000e+00 
0.0000000e+00 0.0000000e+00 0.0000000e+00 
0.0000000e+00 0.0000000e+00 0.0000000e+00 
0.0000000e+00 0.0000000e+00 0.0000000e+00 
0.0000000e+00 0.0000000e+00 0.0000000e+00 
0.0000000e+00 0.0000000e+00 0.0000000e+00 
0.0000000e+00 0.0000000e+00 0.0000000e+00 
0.0000000e+00 0.0000000e+00 0.0000000e+00 
0.0000000e+00 0.0000000e+00 0.0000000e+00 
0.0000000e+00 0.0000000e+00 0.0000000e+00 
0.0000000e+00 0.0000000e+00 0.0000000e+00 
0.0000000e+00 0.0000000e+00 0.0000000e+00 
0.0000000e+00 0.0000000e+00 0.0000000e+00 
0.0000000e+00 0.0000000e+00 0.0000000e+00 
0.0000000e+00 0.0000000e+00 0.0000000e+00 
0.0000000e+00 0.0000000e+00 0.0000000e+00 
0.0000000e+00 0.0000000e+00 0.0000000e+00 
0.0000000e+00 0.0000000e+00 0.0000000e+00 
0.0000000e+00 0.0000000e+00 0.0000000e+00 
0.0000000e+00 0.0000000e+00 0.0000000e+00 
0.0000000e+00 0.0000000e+00 0.0000000e+00 
0.0000000e+00 0.0000000e+00 0.0000000e+00 
0.0000000e+00 0.0000000e+00 0.0000000e+00 
0.0000000e+00 0.0000000e+00 0.0000000e+00 
0.0000000e+00 0.0000000e+00 0.0000000e+00 
0.0000000e+00 0.0000000e+00 0.0000000e+00 
0.0000000e+00 0.0000000e+00 0.0000000e+00 
0.0000000e+00 0.0000000e+00 0.0000000e+00 
0.0000000e+00 0.0000000e+00 0.0000000e+00 
0.0000000e+00 0.0000000e+00 0.0000000e+00 
0.0000000e+00 0.0000000e+00 0.0000000e+00 
0.0000000e+00 0.0000000e+00 0.0000000e+00 
0.0000000e+00 0.0000000e+00 0.0000000e+00 
0.0000000e+00 0.0000000e+00 0.0000000e+00 
0.0000000e+00 0.0000000e+00 0.0000000e+00 
0.0000000e+00 0.0000000e+00 0.0000000e+00 
0.0000000e+00 0.0000000e+00 0.0000000e+00 
0.0000000e+00 0.0000000e+00 0.0000000e+00 
0.0000000e+00 0.0000000e+00 0.0000000e+00 
0.0000000e+00 0.0000000e+00 0.0000000e+00 
0.0000000e+00 0.0000000e+00 0.0000000e+00 
0.0000000e+00 0.0000000e+00 0.0000000e+00 
0.0000000e+00 0.0000000e+00 0.0000000e+00 
0.0000000e+00 0.0000000e+00 0.0000000e+00 
0.0000000e+00 0.0000000e+00 0.0000000e+00 
0.0000000e+00 0.0000000e+00 0.0000000e+00 
0.0000000e+00 0.0000000e+00 0.0000000e+00 
0.0000000e+00 0.0000000e+00 0.0000000e+00 
0.0000000e+00 0.0000000e+00 0.0000000e+00 
0.0000000e+00 0.0000000e+00 0.0000000e+00 
0.0000000e+00 0.0000000e+00 0.0000000e+00 
0.0000000e+00 0.0000000e+00 0.0000000e+00 
0.0000000e+00 0.0000000e+00 0.0000000e+00 
0.0000000e+00 0.0000000e+00 0.0000000e+00 
0.0000000e+00 0.0000000e+00 0.0000000e+00 
0.0000000e+00 0.0000000e+00 0.0000000e+00 
0.0000000e+00 0.0000000e+00 0.0000000e+00 
0.0000000e+00 0.0000000e+00 0.0000000e+00 
0.0000000e+00 0.0000000e+00 0.0000000e+00 
0.0000000e+00 0.0000000e+00 0.0000000e+00 
0.0000000e+00 0.0000000e+00 0.0000000e+00 
0.0000000e+00 0.0000000e+00 0.0000000e+00 
0.0000000e+00 0.0000000e+00 0.0000000e+00 
0.0000000e+00 0.0000000e+00 0.0000000e+00 
0.0000000e+00 0.0000000e+00 0.0000000e+00 
0.0000000e+00 0.0000000e+00 0.0000000e+00 
0.0000000e+00 0.0000000e+00 0.0000000e+00 
0.0000000e+00 0.0000000e+00 0.0000000e+00 
CELL_DATA 38
FIELD FieldData 0
