# vtk DataFile Version 4.0
vtk output
ASCII
DATASET UNSTRUCTURED_GRID
POINTS 101 float
0.0000000e+00 0.0000000e+00 0.0000000e+00 
0.0000000e+00 2.5000000e-01 0.0000000e+00 
2.5000000e-01 0.0000000e+00 0.0000000e+00 
2.5000000e-01 2.5000000e-01 0.0000000e+00 
0.0000000e+00 5.0000000e-01 0.0000000e+00 
5.0000000e-01 0.0000000e+00 0.0000000e+00 
3.5416666e-01 5.0558227e-01 0.0000000e+00 
6.0416669e-01 2.5558227e-01 0.0000000e+00 
0.0000000e+00 7.5000000e-01 0.0000000e+00 
7.5000000e-01 0.0000000e+00 0.0000000e+00 
2.5000000e-01 7.5000000e-01 0.0000000e+00 
7.0833331e-01 5.1116455e-01 0.0000000e+00 
8.5416669e-01 2.5558227e-01 0.0000000e+00 
6.0416669e-01 7.5558227e-01 0.0000000e+00 
0.0000000e+00 1.0000000e+00 0.0000000e+00 
1.0000000e+00 0.0000000e+00 0.0000000e+00 
2.5000000e-01 1.0000000e+00 0.0000000e+00 
9.7916669e-01 5.3907591e-01 0.0000000e+00 
5.0000000e-01 1.0000000e+00 0.0000000e+00 
8.5416669e-01 7.5558227e-01 0.0000000e+00 
1.1250000e+00 2.8349364e-01 0.0000000e+00 
7.5000000e-01 1.0000000e+00 0.0000000e+00 
1.2500000e+00 0.0000000e+00 0.0000000e+00 
1.1250000e+00 7.8349364e-01 0.0000000e+00 
1.2500000e+00 5.6698728e-01 0.0000000e+00 
1.3750000e+00 2.8349364e-01 0.0000000e+00 
1.0000000e+00 1.0000000e+00 0.0000000e+00 
1.5000000e+00 0.0000000e+00 0.0000000e+00 
1.3750000e+00 7.8349364e-01 0.0000000e+00 
1.2500000e+00 1.0000000e+00 0.0000000e+00 
1.5000000e+00 5.6698728e-01 0.0000000e+00 
1.6250000e+00 2.8349364e-01 0.0000000e+00 
1.7500000e+00 0.0000000e+00 0.0000000e+00 
1.5000000e+00 1.0000000e+00 0.0000000e+00 
1.6250000e+00 7.8349364e-01 0.0000000e+00 
1.7500000e+00 5.6698728e-01 0.0000000e+00 
1.8750000e+00 2.8349364e-01 0.0000000e+00 
2.0000000e+00 0.0000000e+00 0.0000000e+00 
1.7500000e+00 1.0000000e+00 0.0000000e+00 
1.8750000e+00 7.8349364e-01 0.0000000e+00 
2.0000000e+00 5.6698728e-01 0.0000000e+00 
2.1250000e+00 2.8349364e-01 0.0000000e+00 
2.0000000e+00 1.0000000e+00 0.0000000e+00 
2.2500000e+00 0.0000000e+00 0.0000000e+00 
2.1250000e+00 7.8349364e-01 0.0000000e+00 
2.2500000e+00 5.6698728e-01 0.0000000e+00 
2.3750000e+00 2.8349364e-01 0.0000000e+00 
2.2500000e+00 1.0000000e+00 0.0000000e+00 
2.5000000e+00 0.0000000e+00 0.0000000e+00 
2.3750000e+00 7.8349364e-01 0.0000000e+00 
2.5000000e+00 5.6698728e-01 0.0000000e+00 
2.6250000e+00 2.8349364e-01 0.0000000e+00 
2.5000000e+00 1.0000000e+00 0.0000000e+00 
2.6250000e+00 7.8349364e-01 0.0000000e+00 
2.7500000e+00 0.0000000e+00 0.0000000e+00 
2.7500000e+00 5.6698728e-01 0.0000000e+00 
2.8750000e+00 2.8349364e-01 0.0000000e+00 
2.7500000e+00 1.0000000e+00 0.0000000e+00 
2.8750000e+00 7.8349364e-01 0.0000000e+00 
3.0000000e+00 0.0000000e+00 0.0000000e+00 
3.0000000e+00 5.0000000e-01 0.0000000e+00 
3.1250000e+00 2.1650635e-01 0.0000000e+00 
3.0000000e+00 1.0000000e+00 0.0000000e+00 
3.1250000e+00 7.1650636e-01 0.0000000e+00 
3.2500000e+00 0.0000000e+00 0.0000000e+00 
3.2500000e+00 4.3301269e-01 0.0000000e+00 
3.3750000e+00 2.1650635e-01 0.0000000e+00 
3.2500000e+00 1.0000000e+00 0.0000000e+00 
3.3750000e+00 7.1650636e-01 0.0000000e+00 
3.5000000e+00 0.0000000e+00 0.0000000e+00 
3.5000000e+00 4.3301269e-01 0.0000000e+00 
3.6250000e+00 2.1650635e-01 0.0000000e+00 
3.5000000e+00 1.0000000e+00 0.0000000e+00 
3.6250000e+00 7.1650636e-01 0.0000000e+00 
3.7500000e+00 0.0000000e+00 0.0000000e+00 
3.7500000e+00 4.3301269e-01 0.0000000e+00 
3.8750000e+00 2.1650635e-01 0.0000000e+00 
3.7500000e+00 1.0000000e+00 0.0000000e+00 
3.8750000e+00 7.1650636e-01 0.0000000e+00 
4.0000000e+00 0.0000000e+00 0.0000000e+00 
4.0208335e+00 4.6092409e-01 0.0000000e+00 
4.0000000e+00 1.0000000e+00 0.0000000e+00 
4.1458335e+00 2.4441773e-01 0.0000000e+00 
4.1458335e+00 7.4441773e-01 0.0000000e+00 
4.2500000e+00 0.0000000e+00 0.0000000e+00 
4.2916665e+00 4.8883545e-01 0.0000000e+00 
4.2500000e+00 1.0000000e+00 0.0000000e+00 
4.3958335e+00 2.4441773e-01 0.0000000e+00 
4.3958335e+00 7.4441773e-01 0.0000000e+00 
4.5000000e+00 0.0000000e+00 0.0000000e+00 
4.5000000e+00 1.0000000e+00 0.0000000e+00 
4.6458335e+00 4.9441773e-01 0.0000000e+00 
4.7500000e+00 0.0000000e+00 0.0000000e+00 
4.7500000e+00 2.5000000e-01 0.0000000e+00 
4.7500000e+00 7.5000000e-01 0.0000000e+00 
4.7500000e+00 1.0000000e+00 0.0000000e+00 
5.0000000e+00 0.0000000e+00 0.0000000e+00 
5.0000000e+00 2.5000000e-01 0.0000000e+00 
5.0000000e+00 5.0000000e-01 0.0000000e+00 
5.0000000e+00 7.5000000e-01 0.0000000e+00 
5.0000000e+00 1.0000000e+00 0.0000000e+00 

CELLS 38 266
6 0 5 4 2 3 1
6 79 89 85 84 87 82
6 62 52 55 57 53 58
6 85 89 98 87 93 91
6 79 85 75 82 80 76
6 55 52 45 53 49 50
6 75 85 81 80 83 78
6 79 75 69 76 71 74
6 45 52 42 49 47 44
6 55 45 48 50 46 51
6 69 75 65 71 70 66
6 65 75 72 70 73 68
6 69 65 59 66 61 64
6 59 65 55 61 60 56
6 37 48 45 43 46 41
6 100 90 98 95 94 99
6 26 18 11 21 13 19
6 11 18 4 13 10 6
6 26 11 24 19 17 23
6 24 11 15 17 12 20
6 26 24 33 23 28 29
6 33 24 35 28 30 34
6 35 24 27 30 25 31
6 33 35 42 34 39 38
6 42 35 45 39 40 44
6 45 35 37 40 36 41
6 15 27 24 22 25 20
6 96 98 89 97 93 92
6 81 72 75 77 73 78
6 14 4 18 8 10 16
6 5 15 11 9 12 7
6 48 59 55 54 56 51
6 90 81 85 86 83 88
6 27 37 35 32 36 31
6 72 62 65 67 63 68
6 62 55 65 58 60 63
6 90 85 98 88 91 94
6 5 11 4 7 6 3

CELL_TYPES 38
22
22
22
22
22
22
22
22
22
22
22
22
22
22
22
22
22
22
22
22
22
22
22
22
22
22
22
22
22
22
22
22
22
22
22
22
22
22
POINT_DATA 101
FIELD FieldData 1
DISPLACEMENT 3 101  float
0.0000000e+00 0.0000000e+00 0.0000000e+00 
0.0000000e+00 0.0000000e+00 0.0000000e+00 
0.0000000e+00 0.0000000e+00 0.0000000e+00 
-8.3959122e-08 -3.7978364e-08 0.0000000e+00 
0.0000000e+00 0.0000000e+00 0.0000000e+00 
0.0000000e+00 0.0000000e+00 0.0000000e+00 
-2.1124509e-07 -5.0992409e-08 0.0000000e+00 
-2.1277700e-07 -6.1162339e-08 0.0000000e+00 
0.0000000e+00 0.0000000e+00 0.0000000e+00 
0.0000000e+00 0.0000000e+00 0.0000000e+00 
-1.8210446e-07 -1.3624161e-08 0.0000000e+00 
-4.5384570e-07 -7.3872002e-08 0.0000000e+00 
-3.1692883e-07 -7.4850313e-08 0.0000000e+00 
-4.8121927e-07 -3.2219369e-08 0.0000000e+00 
0.0000000e+00 0.0000000e+00 0.0000000e+00 
0.0000000e+00 0.0000000e+00 0.0000000e+00 
-1.9541051e-07 2.8921153e-08 0.0000000e+00 
-7.0260495e-07 -9.0576563e-08 0.0000000e+00 
-4.1639146e-07 2.9333087e-08 0.0000000e+00 
-7.2611340e-07 -4.4033047e-08 0.0000000e+00 
-4.9307590e-07 -9.6511116e-08 0.0000000e+00 
-6.6673994e-07 2.0938945e-08 0.0000000e+00 
0.0000000e+00 0.0000000e+00 0.0000000e+00 
-1.0634666e-06 -4.8980471e-08 0.0000000e+00 
-1.0172931e-06 -1.0802135e-07 0.0000000e+00 
-6.5466946e-07 -1.1487877e-07 0.0000000e+00 
-9.6193446e-07 2.5628067e-08 0.0000000e+00 
0.0000000e+00 0.0000000e+00 0.0000000e+00 
-1.4341691e-06 -5.2345097e-08 0.0000000e+00 
-1.3265181e-06 2.7914687e-08 0.0000000e+00 
-1.3480445e-06 -1.1923066e-07 0.0000000e+00 
-8.5277605e-07 -1.2861337e-07 0.0000000e+00 
0.0000000e+00 0.0000000e+00 0.0000000e+00 
-1.7801989e-06 5.5678353e-08 0.0000000e+00 
-1.8965502e-06 -4.2653415e-08 0.0000000e+00 
-1.7522684e-06 -1.1403501e-07 0.0000000e+00 
-1.1013082e-06 -1.3093705e-07 0.0000000e+00 
0.0000000e+00 0.0000000e+00 0.0000000e+00 
-2.3691885e-06 1.0435630e-07 0.0000000e+00 
-2.4730061e-06 9.0345535e-09 0.0000000e+00 
-2.2623515e-06 -6.2965135e-08 0.0000000e+00 
-1.4264559e-06 -1.0146815e-07 0.0000000e+00 
-3.1119416e-06 2.2977886e-07 0.0000000e+00 
0.0000000e+00 0.0000000e+00 0.0000000e+00 
-3.1933455e-06 1.3975630e-07 0.0000000e+00 
-2.8991917e-06 8.6375188e-08 0.0000000e+00 
-1.8815992e-06 -2.4482874e-08 0.0000000e+00 
-4.0622431e-06 4.6601295e-07 0.0000000e+00 
0.0000000e+00 0.0000000e+00 0.0000000e+00 
-4.0745635e-06 4.2230283e-07 0.0000000e+00 
-3.7381606e-06 3.7311514e-07 0.0000000e+00 
-2.5618044e-06 1.3256749e-07 0.0000000e+00 
-5.2123705e-06 9.1608797e-07 0.0000000e+00 
-5.1335082e-06 9.6148221e-07 0.0000000e+00 
0.0000000e+00 0.0000000e+00 0.0000000e+00 
-4.8490547e-06 9.2257312e-07 0.0000000e+00 
-3.6664201e-06 3.3679495e-07 0.0000000e+00 
-6.4014052e-06 1.6577003e-06 0.0000000e+00 
-6.3668504e-06 1.8006164e-06 0.0000000e+00 
0.0000000e+00 0.0000000e+00 0.0000000e+00 
-6.3010648e-06 1.3544060e-06 0.0000000e+00 
-4.6316359e-06 2.4570571e-07 0.0000000e+00 
-7.4956533e-06 2.6976245e-06 0.0000000e+00 
-7.6965262e-06 2.6166163e-06 0.0000000e+00 
0.0000000e+00 0.0000000e+00 0.0000000e+00 
-8.6531018e-06 1.4615252e-06 0.0000000e+00 
-7.6848264e-06 -1.6908287e-07 0.0000000e+00 
-7.3037986e-06 3.5112239e-06 0.0000000e+00 
-9.5897813e-06 3.1589339e-06 0.0000000e+00 
0.0000000e+00 0.0000000e+00 0.0000000e+00 
-1.3666645e-05 6.5426048e-07 0.0000000e+00 
-1.2810696e-05 -1.8391879e-06 0.0000000e+00 
-5.9033787e-06 3.4300933e-06 0.0000000e+00 
-1.2144327e-05 1.6187531e-06 0.0000000e+00 
0.0000000e+00 0.0000000e+00 0.0000000e+00 
-2.1385256e-05 -3.6258480e-06 0.0000000e+00 
-2.0797446e-05 -6.8267846e-06 0.0000000e+00 
9.3710321e-07 -1.3897096e-06 0.0000000e+00 
-1.5884621e-05 -6.1922292e-06 0.0000000e+00 
0.0000000e+00 0.0000000e+00 0.0000000e+00 
-3.6595731e-05 -1.7567023e-05 0.0000000e+00 
1.1433221e-05 -1.5190625e-05 0.0000000e+00 
-3.4906796e-05 -2.2569671e-05 0.0000000e+00 
-1.9587584e-05 -3.1528190e-05 0.0000000e+00 
0.0000000e+00 0.0000000e+00 0.0000000e+00 
-5.9594440e-05 -5.9356844e-05 0.0000000e+00 
3.3709290e-05 -5.1165658e-05 0.0000000e+00 
-4.3484550e-05 -5.3877258e-05 0.0000000e+00 
-3.0956220e-05 -8.7154171e-05 0.0000000e+00 
0.0000000e+00 0.0000000e+00 0.0000000e+00 
5.9277932e-05 -1.1008824e-04 0.0000000e+00 
-7.2531475e-05 -1.8977099e-04 0.0000000e+00 
0.0000000e+00 0.0000000e+00 0.0000000e+00 
-5.3493304e-06 -5.9589995e-05 0.0000000e+00 
-5.7380716e-05 -3.9617249e-04 0.0000000e+00 
1.0405387e-04 -8.9407462e-04 0.0000000e+00 
0.0000000e+00 0.0000000e+00 0.0000000e+00 
0.0000000e+00 0.0000000e+00 0.0000000e+00 
0.0000000e+00 0.0000000e+00 0.0000000e+00 
0.0000000e+00 0.0000000e+00 0.0000000e+00 
0.0000000e+00 0.0000000e+00 0.0000000e+00 
CELL_DATA 38
FIELD FieldData 0
