# vtk DataFile Version 4.0
vtk output
ASCII
DATASET UNSTRUCTURED_GRID
POINTS 101 float
0.0000000e+00 0.0000000e+00 0.0000000e+00 
0.0000000e+00 2.5000000e-01 0.0000000e+00 
2.5000000e-01 0.0000000e+00 0.0000000e+00 
2.5000000e-01 2.5000000e-01 0.0000000e+00 
0.0000000e+00 5.0000000e-01 0.0000000e+00 
5.0000000e-01 0.0000000e+00 0.0000000e+00 
3.5416666e-01 5.0558227e-01 0.0000000e+00 
6.0416669e-01 2.5558227e-01 0.0000000e+00 
0.0000000e+00 7.5000000e-01 0.0000000e+00 
7.5000000e-01 0.0000000e+00 0.0000000e+00 
2.5000000e-01 7.5000000e-01 0.0000000e+00 
7.0833331e-01 5.1116455e-01 0.0000000e+00 
8.5416669e-01 2.5558227e-01 0.0000000e+00 
6.0416669e-01 7.5558227e-01 0.0000000e+00 
0.0000000e+00 1.0000000e+00 0.0000000e+00 
1.0000000e+00 0.0000000e+00 0.0000000e+00 
2.5000000e-01 1.0000000e+00 0.0000000e+00 
9.7916669e-01 5.3907591e-01 0.0000000e+00 
5.0000000e-01 1.0000000e+00 0.0000000e+00 
8.5416669e-01 7.5558227e-01 0.0000000e+00 
1.1250000e+00 2.8349364e-01 0.0000000e+00 
7.5000000e-01 1.0000000e+00 0.0000000e+00 
1.2500000e+00 0.0000000e+00 0.0000000e+00 
1.1250000e+00 7.8349364e-01 0.0000000e+00 
1.2500000e+00 5.6698728e-01 0.0000000e+00 
1.3750000e+00 2.8349364e-01 0.0000000e+00 
1.0000000e+00 1.0000000e+00 0.0000000e+00 
1.5000000e+00 0.0000000e+00 0.0000000e+00 
1.3750000e+00 7.8349364e-01 0.0000000e+00 
1.2500000e+00 1.0000000e+00 0.0000000e+00 
1.5000000e+00 5.6698728e-01 0.0000000e+00 
1.6250000e+00 2.8349364e-01 0.0000000e+00 
1.7500000e+00 0.0000000e+00 0.0000000e+00 
1.5000000e+00 1.0000000e+00 0.0000000e+00 
1.6250000e+00 7.8349364e-01 0.0000000e+00 
1.7500000e+00 5.6698728e-01 0.0000000e+00 
1.8750000e+00 2.8349364e-01 0.0000000e+00 
2.0000000e+00 0.0000000e+00 0.0000000e+00 
1.7500000e+00 1.0000000e+00 0.0000000e+00 
1.8750000e+00 7.8349364e-01 0.0000000e+00 
2.0000000e+00 5.6698728e-01 0.0000000e+00 
2.1250000e+00 2.8349364e-01 0.0000000e+00 
2.0000000e+00 1.0000000e+00 0.0000000e+00 
2.2500000e+00 0.0000000e+00 0.0000000e+00 
2.1250000e+00 7.8349364e-01 0.0000000e+00 
2.2500000e+00 5.6698728e-01 0.0000000e+00 
2.3750000e+00 2.8349364e-01 0.0000000e+00 
2.2500000e+00 1.0000000e+00 0.0000000e+00 
2.5000000e+00 0.0000000e+00 0.0000000e+00 
2.3750000e+00 7.8349364e-01 0.0000000e+00 
2.5000000e+00 5.6698728e-01 0.0000000e+00 
2.6250000e+00 2.8349364e-01 0.0000000e+00 
2.5000000e+00 1.0000000e+00 0.0000000e+00 
2.6250000e+00 7.8349364e-01 0.0000000e+00 
2.7500000e+00 0.0000000e+00 0.0000000e+00 
2.7500000e+00 5.6698728e-01 0.0000000e+00 
2.8750000e+00 2.8349364e-01 0.0000000e+00 
2.7500000e+00 1.0000000e+00 0.0000000e+00 
2.8750000e+00 7.8349364e-01 0.0000000e+00 
3.0000000e+00 0.0000000e+00 0.0000000e+00 
3.0000000e+00 5.0000000e-01 0.0000000e+00 
3.1250000e+00 2.1650635e-01 0.0000000e+00 
3.0000000e+00 1.0000000e+00 0.0000000e+00 
3.1250000e+00 7.1650636e-01 0.0000000e+00 
3.2500000e+00 0.0000000e+00 0.0000000e+00 
3.2500000e+00 4.3301269e-01 0.0000000e+00 
3.3750000e+00 2.1650635e-01 0.0000000e+00 
3.2500000e+00 1.0000000e+00 0.0000000e+00 
3.3750000e+00 7.1650636e-01 0.0000000e+00 
3.5000000e+00 0.0000000e+00 0.0000000e+00 
3.5000000e+00 4.3301269e-01 0.0000000e+00 
3.6250000e+00 2.1650635e-01 0.0000000e+00 
3.5000000e+00 1.0000000e+00 0.0000000e+00 
3.6250000e+00 7.1650636e-01 0.0000000e+00 
3.7500000e+00 0.0000000e+00 0.0000000e+00 
3.7500000e+00 4.3301269e-01 0.0000000e+00 
3.8750000e+00 2.1650635e-01 0.0000000e+00 
3.7500000e+00 1.0000000e+00 0.0000000e+00 
3.8750000e+00 7.1650636e-01 0.0000000e+00 
4.0000000e+00 0.0000000e+00 0.0000000e+00 
4.0208335e+00 4.6092409e-01 0.0000000e+00 
4.0000000e+00 1.0000000e+00 0.0000000e+00 
4.1458335e+00 2.4441773e-01 0.0000000e+00 
4.1458335e+00 7.4441773e-01 0.0000000e+00 
4.2500000e+00 0.0000000e+00 0.0000000e+00 
4.2916665e+00 4.8883545e-01 0.0000000e+00 
4.2500000e+00 1.0000000e+00 0.0000000e+00 
4.3958335e+00 2.4441773e-01 0.0000000e+00 
4.3958335e+00 7.4441773e-01 0.0000000e+00 
4.5000000e+00 0.0000000e+00 0.0000000e+00 
4.5000000e+00 1.0000000e+00 0.0000000e+00 
4.6458335e+00 4.9441773e-01 0.0000000e+00 
4.7500000e+00 0.0000000e+00 0.0000000e+00 
4.7500000e+00 2.5000000e-01 0.0000000e+00 
4.7500000e+00 7.5000000e-01 0.0000000e+00 
4.7500000e+00 1.0000000e+00 0.0000000e+00 
5.0000000e+00 0.0000000e+00 0.0000000e+00 
5.0000000e+00 2.5000000e-01 0.0000000e+00 
5.0000000e+00 5.0000000e-01 0.0000000e+00 
5.0000000e+00 7.5000000e-01 0.0000000e+00 
5.0000000e+00 1.0000000e+00 0.0000000e+00 

CELLS 38 266
6 0 5 4 2 3 1
6 79 89 85 84 87 82
6 62 52 55 57 53 58
6 85 89 98 87 93 91
6 79 85 75 82 80 76
6 55 52 45 53 49 50
6 75 85 81 80 83 78
6 79 75 69 76 71 74
6 45 52 42 49 47 44
6 55 45 48 50 46 51
6 69 75 65 71 70 66
6 65 75 72 70 73 68
6 69 65 59 66 61 64
6 59 65 55 61 60 56
6 37 48 45 43 46 41
6 100 90 98 95 94 99
6 26 18 11 21 13 19
6 11 18 4 13 10 6
6 26 11 24 19 17 23
6 24 11 15 17 12 20
6 26 24 33 23 28 29
6 33 24 35 28 30 34
6 35 24 27 30 25 31
6 33 35 42 34 39 38
6 42 35 45 39 40 44
6 45 35 37 40 36 41
6 15 27 24 22 25 20
6 96 98 89 97 93 92
6 81 72 75 77 73 78
6 14 4 18 8 10 16
6 5 15 11 9 12 7
6 48 59 55 54 56 51
6 90 81 85 86 83 88
6 27 37 35 32 36 31
6 72 62 65 67 63 68
6 62 55 65 58 60 63
6 90 85 98 88 91 94
6 5 11 4 7 6 3

CELL_TYPES 38
22
22
22
22
22
22
22
22
22
22
22
22
22
22
22
22
22
22
22
22
22
22
22
22
22
22
22
22
22
22
22
22
22
22
22
22
22
22
POINT_DATA 101
FIELD FieldData 1
DISPLACEMENT 3 101  float
0.0000000e+00 0.0000000e+00 0.0000000e+00 
0.0000000e+00 0.0000000e+00 0.0000000e+00 
0.0000000e+00 0.0000000e+00 0.0000000e+00 
-1.6551092e-04 -1.0528404e-04 0.0000000e+00 
0.0000000e+00 0.0000000e+00 0.0000000e+00 
0.0000000e+00 0.0000000e+00 0.0000000e+00 
-2.5590658e-04 -2.4771396e-04 0.0000000e+00 
-3.8806870e-04 -4.5646424e-04 0.0000000e+00 
0.0000000e+00 0.0000000e+00 0.0000000e+00 
0.0000000e+00 0.0000000e+00 0.0000000e+00 
2.1581116e-05 -1.0249663e-04 0.0000000e+00 
-5.3786795e-04 -1.0973921e-03 0.0000000e+00 
-4.3408273e-04 -8.6139631e-04 0.0000000e+00 
-3.9236471e-05 -8.8283949e-04 0.0000000e+00 
0.0000000e+00 0.0000000e+00 0.0000000e+00 
0.0000000e+00 0.0000000e+00 0.0000000e+00 
3.2625045e-04 -1.4854386e-04 0.0000000e+00 
-5.2647531e-04 -2.4165111e-03 0.0000000e+00 
6.8781566e-04 -5.9191138e-04 0.0000000e+00 
-2.0625429e-04 -2.3115620e-03 0.0000000e+00 
-2.4401530e-04 -1.3990217e-03 0.0000000e+00 
1.1393665e-03 -1.7284171e-03 0.0000000e+00 
0.0000000e+00 0.0000000e+00 0.0000000e+00 
-2.4571130e-04 -4.9432768e-03 0.0000000e+00 
-2.9388314e-06 -3.4846589e-03 0.0000000e+00 
1.4960003e-04 -1.4155927e-03 0.0000000e+00 
1.3266244e-03 -4.4150394e-03 0.0000000e+00 
0.0000000e+00 0.0000000e+00 0.0000000e+00 
4.0343215e-04 -4.7311680e-03 0.0000000e+00 
1.0664946e-05 -8.4151467e-03 0.0000000e+00 
4.3485750e-04 -2.6434152e-03 0.0000000e+00 
3.1933910e-04 -1.0975087e-03 0.0000000e+00 
0.0000000e+00 0.0000000e+00 0.0000000e+00 
-1.1450856e-03 -3.6487484e-03 0.0000000e+00 
9.5649193e-05 -2.4417953e-03 0.0000000e+00 
3.5358599e-04 -1.6761817e-03 0.0000000e+00 
2.7846298e-04 -8.0706703e-04 0.0000000e+00 
0.0000000e+00 0.0000000e+00 0.0000000e+00 
-6.6345994e-04 -2.0082491e-03 0.0000000e+00 
-8.9012799e-05 -1.6766507e-03 0.0000000e+00 
1.5431611e-04 -1.3488223e-03 0.0000000e+00 
2.3558225e-04 -6.5019930e-04 0.0000000e+00 
-1.7542609e-04 -1.9833504e-03 0.0000000e+00 
0.0000000e+00 0.0000000e+00 0.0000000e+00 
-1.5610419e-04 -1.9037261e-03 0.0000000e+00 
1.8268535e-04 -1.2681162e-03 0.0000000e+00 
2.6391694e-04 -5.0186907e-04 0.0000000e+00 
-3.6841581e-04 -2.9295643e-03 0.0000000e+00 
0.0000000e+00 0.0000000e+00 0.0000000e+00 
8.0991682e-05 -1.5745998e-03 0.0000000e+00 
2.6864029e-04 -8.2064967e-04 0.0000000e+00 
2.5429222e-04 -3.0967762e-04 0.0000000e+00 
-5.9892447e-04 -1.1449823e-03 0.0000000e+00 
6.6650309e-06 -6.6620315e-04 0.0000000e+00 
0.0000000e+00 0.0000000e+00 0.0000000e+00 
2.1826653e-04 -3.6917621e-04 0.0000000e+00 
1.9386575e-04 -1.4587175e-04 0.0000000e+00 
-3.9997278e-04 -4.3556644e-04 0.0000000e+00 
-2.0135092e-05 -2.2803441e-04 0.0000000e+00 
0.0000000e+00 0.0000000e+00 0.0000000e+00 
1.5316573e-04 -1.1721441e-04 0.0000000e+00 
1.0956712e-04 -4.4333985e-05 0.0000000e+00 
-2.0552269e-04 -1.3238640e-04 0.0000000e+00 
1.9104351e-05 -5.2469739e-05 0.0000000e+00 
0.0000000e+00 0.0000000e+00 0.0000000e+00 
9.5466785e-05 -2.4242583e-05 0.0000000e+00 
6.2919222e-05 -1.0436659e-05 0.0000000e+00 
-1.0507468e-04 -2.1226093e-05 0.0000000e+00 
1.2469237e-05 9.6680724e-06 0.0000000e+00 
0.0000000e+00 0.0000000e+00 0.0000000e+00 
5.2317915e-05 7.2298440e-06 0.0000000e+00 
3.2975800e-05 1.3984570e-06 0.0000000e+00 
-3.4718232e-05 1.9056932e-05 0.0000000e+00 
9.8028240e-06 2.3163020e-05 0.0000000e+00 
0.0000000e+00 0.0000000e+00 0.0000000e+00 
2.5743717e-05 1.3310071e-05 0.0000000e+00 
1.5908241e-05 4.2354864e-06 0.0000000e+00 
-7.6686256e-06 2.2683156e-05 0.0000000e+00 
8.4220874e-06 2.0222675e-05 0.0000000e+00 
0.0000000e+00 0.0000000e+00 0.0000000e+00 
1.2483836e-05 1.0884679e-05 0.0000000e+00 
7.0063052e-06 1.7889828e-05 0.0000000e+00 
7.3881765e-06 3.7568657e-06 0.0000000e+00 
6.7650330e-06 1.2836397e-05 0.0000000e+00 
0.0000000e+00 0.0000000e+00 0.0000000e+00 
5.5256260e-06 6.7196793e-06 0.0000000e+00 
8.6520131e-06 1.0965608e-05 0.0000000e+00 
3.2009887e-06 2.2455815e-06 0.0000000e+00 
5.1789293e-06 6.9431608e-06 0.0000000e+00 
0.0000000e+00 0.0000000e+00 0.0000000e+00 
7.4471473e-06 5.9195359e-06 0.0000000e+00 
2.0648372e-06 2.0016282e-06 0.0000000e+00 
0.0000000e+00 0.0000000e+00 0.0000000e+00 
7.9143678e-07 4.5158421e-07 0.0000000e+00 
2.2534155e-06 1.6641063e-06 0.0000000e+00 
3.9851011e-06 2.3009170e-06 0.0000000e+00 
0.0000000e+00 0.0000000e+00 0.0000000e+00 
0.0000000e+00 0.0000000e+00 0.0000000e+00 
0.0000000e+00 0.0000000e+00 0.0000000e+00 
0.0000000e+00 0.0000000e+00 0.0000000e+00 
0.0000000e+00 0.0000000e+00 0.0000000e+00 
CELL_DATA 38
FIELD FieldData 0
