# vtk DataFile Version 4.0
vtk output
ASCII
DATASET UNSTRUCTURED_GRID
POINTS 101 float
0.0000000e+00 0.0000000e+00 0.0000000e+00 
0.0000000e+00 2.5000000e-01 0.0000000e+00 
2.5000000e-01 0.0000000e+00 0.0000000e+00 
2.5000000e-01 2.5000000e-01 0.0000000e+00 
0.0000000e+00 5.0000000e-01 0.0000000e+00 
5.0000000e-01 0.0000000e+00 0.0000000e+00 
3.5416666e-01 5.0558227e-01 0.0000000e+00 
6.0416669e-01 2.5558227e-01 0.0000000e+00 
0.0000000e+00 7.5000000e-01 0.0000000e+00 
7.5000000e-01 0.0000000e+00 0.0000000e+00 
2.5000000e-01 7.5000000e-01 0.0000000e+00 
7.0833331e-01 5.1116455e-01 0.0000000e+00 
8.5416669e-01 2.5558227e-01 0.0000000e+00 
6.0416669e-01 7.5558227e-01 0.0000000e+00 
0.0000000e+00 1.0000000e+00 0.0000000e+00 
1.0000000e+00 0.0000000e+00 0.0000000e+00 
2.5000000e-01 1.0000000e+00 0.0000000e+00 
9.7916669e-01 5.3907591e-01 0.0000000e+00 
5.0000000e-01 1.0000000e+00 0.0000000e+00 
8.5416669e-01 7.5558227e-01 0.0000000e+00 
1.1250000e+00 2.8349364e-01 0.0000000e+00 
7.5000000e-01 1.0000000e+00 0.0000000e+00 
1.2500000e+00 0.0000000e+00 0.0000000e+00 
1.1250000e+00 7.8349364e-01 0.0000000e+00 
1.2500000e+00 5.6698728e-01 0.0000000e+00 
1.3750000e+00 2.8349364e-01 0.0000000e+00 
1.0000000e+00 1.0000000e+00 0.0000000e+00 
1.5000000e+00 0.0000000e+00 0.0000000e+00 
1.3750000e+00 7.8349364e-01 0.0000000e+00 
1.2500000e+00 1.0000000e+00 0.0000000e+00 
1.5000000e+00 5.6698728e-01 0.0000000e+00 
1.6250000e+00 2.8349364e-01 0.0000000e+00 
1.7500000e+00 0.0000000e+00 0.0000000e+00 
1.5000000e+00 1.0000000e+00 0.0000000e+00 
1.6250000e+00 7.8349364e-01 0.0000000e+00 
1.7500000e+00 5.6698728e-01 0.0000000e+00 
1.8750000e+00 2.8349364e-01 0.0000000e+00 
2.0000000e+00 0.0000000e+00 0.0000000e+00 
1.7500000e+00 1.0000000e+00 0.0000000e+00 
1.8750000e+00 7.8349364e-01 0.0000000e+00 
2.0000000e+00 5.6698728e-01 0.0000000e+00 
2.1250000e+00 2.8349364e-01 0.0000000e+00 
2.0000000e+00 1.0000000e+00 0.0000000e+00 
2.2500000e+00 0.0000000e+00 0.0000000e+00 
2.1250000e+00 7.8349364e-01 0.0000000e+00 
2.2500000e+00 5.6698728e-01 0.0000000e+00 
2.3750000e+00 2.8349364e-01 0.0000000e+00 
2.2500000e+00 1.0000000e+00 0.0000000e+00 
2.5000000e+00 0.0000000e+00 0.0000000e+00 
2.3750000e+00 7.8349364e-01 0.0000000e+00 
2.5000000e+00 5.6698728e-01 0.0000000e+00 
2.6250000e+00 2.8349364e-01 0.0000000e+00 
2.5000000e+00 1.0000000e+00 0.0000000e+00 
2.6250000e+00 7.8349364e-01 0.0000000e+00 
2.7500000e+00 0.0000000e+00 0.0000000e+00 
2.7500000e+00 5.6698728e-01 0.0000000e+00 
2.8750000e+00 2.8349364e-01 0.0000000e+00 
2.7500000e+00 1.0000000e+00 0.0000000e+00 
2.8750000e+00 7.8349364e-01 0.0000000e+00 
3.0000000e+00 0.0000000e+00 0.0000000e+00 
3.0000000e+00 5.0000000e-01 0.0000000e+00 
3.1250000e+00 2.1650635e-01 0.0000000e+00 
3.0000000e+00 1.0000000e+00 0.0000000e+00 
3.1250000e+00 7.1650636e-01 0.0000000e+00 
3.2500000e+00 0.0000000e+00 0.0000000e+00 
3.2500000e+00 4.3301269e-01 0.0000000e+00 
3.3750000e+00 2.1650635e-01 0.0000000e+00 
3.2500000e+00 1.0000000e+00 0.0000000e+00 
3.3750000e+00 7.1650636e-01 0.0000000e+00 
3.5000000e+00 0.0000000e+00 0.0000000e+00 
3.5000000e+00 4.3301269e-01 0.0000000e+00 
3.6250000e+00 2.1650635e-01 0.0000000e+00 
3.5000000e+00 1.0000000e+00 0.0000000e+00 
3.6250000e+00 7.1650636e-01 0.0000000e+00 
3.7500000e+00 0.0000000e+00 0.0000000e+00 
3.7500000e+00 4.3301269e-01 0.0000000e+00 
3.8750000e+00 2.1650635e-01 0.0000000e+00 
3.7500000e+00 1.0000000e+00 0.0000000e+00 
3.8750000e+00 7.1650636e-01 0.0000000e+00 
4.0000000e+00 0.0000000e+00 0.0000000e+00 
4.0208335e+00 4.6092409e-01 0.0000000e+00 
4.0000000e+00 1.0000000e+00 0.0000000e+00 
4.1458335e+00 2.4441773e-01 0.0000000e+00 
4.1458335e+00 7.4441773e-01 0.0000000e+00 
4.2500000e+00 0.0000000e+00 0.0000000e+00 
4.2916665e+00 4.8883545e-01 0.0000000e+00 
4.2500000e+00 1.0000000e+00 0.0000000e+00 
4.3958335e+00 2.4441773e-01 0.0000000e+00 
4.3958335e+00 7.4441773e-01 0.0000000e+00 
4.5000000e+00 0.0000000e+00 0.0000000e+00 
4.5000000e+00 1.0000000e+00 0.0000000e+00 
4.6458335e+00 4.9441773e-01 0.0000000e+00 
4.7500000e+00 0.0000000e+00 0.0000000e+00 
4.7500000e+00 2.5000000e-01 0.0000000e+00 
4.7500000e+00 7.5000000e-01 0.0000000e+00 
4.7500000e+00 1.0000000e+00 0.0000000e+00 
5.0000000e+00 0.0000000e+00 0.0000000e+00 
5.0000000e+00 2.5000000e-01 0.0000000e+00 
5.0000000e+00 5.0000000e-01 0.0000000e+00 
5.0000000e+00 7.5000000e-01 0.0000000e+00 
5.0000000e+00 1.0000000e+00 0.0000000e+00 

CELLS 38 266
6 0 5 4 2 3 1
6 79 89 85 84 87 82
6 62 52 55 57 53 58
6 85 89 98 87 93 91
6 79 85 75 82 80 76
6 55 52 45 53 49 50
6 75 85 81 80 83 78
6 79 75 69 76 71 74
6 45 52 42 49 47 44
6 55 45 48 50 46 51
6 69 75 65 71 70 66
6 65 75 72 70 73 68
6 69 65 59 66 61 64
6 59 65 55 61 60 56
6 37 48 45 43 46 41
6 100 90 98 95 94 99
6 26 18 11 21 13 19
6 11 18 4 13 10 6
6 26 11 24 19 17 23
6 24 11 15 17 12 20
6 26 24 33 23 28 29
6 33 24 35 28 30 34
6 35 24 27 30 25 31
6 33 35 42 34 39 38
6 42 35 45 39 40 44
6 45 35 37 40 36 41
6 15 27 24 22 25 20
6 96 98 89 97 93 92
6 81 72 75 77 73 78
6 14 4 18 8 10 16
6 5 15 11 9 12 7
6 48 59 55 54 56 51
6 90 81 85 86 83 88
6 27 37 35 32 36 31
6 72 62 65 67 63 68
6 62 55 65 58 60 63
6 90 85 98 88 91 94
6 5 11 4 7 6 3

CELL_TYPES 38
22
22
22
22
22
22
22
22
22
22
22
22
22
22
22
22
22
22
22
22
22
22
22
22
22
22
22
22
22
22
22
22
22
22
22
22
22
22
POINT_DATA 101
FIELD FieldData 1
DISPLACEMENT 3 101  float
0.0000000e+00 0.0000000e+00 0.0000000e+00 
0.0000000e+00 0.0000000e+00 0.0000000e+00 
0.0000000e+00 0.0000000e+00 0.0000000e+00 
-1.2117748e-05 -5.8845933e-05 0.0000000e+00 
0.0000000e+00 0.0000000e+00 0.0000000e+00 
0.0000000e+00 0.0000000e+00 0.0000000e+00 
1.1863578e-04 -2.9694816e-04 0.0000000e+00 
2.9881339e-05 -4.5015899e-05 0.0000000e+00 
0.0000000e+00 0.0000000e+00 0.0000000e+00 
0.0000000e+00 0.0000000e+00 0.0000000e+00 
1.7048654e-04 -9.7390619e-04 0.0000000e+00 
3.7800826e-05 -5.3656273e-05 0.0000000e+00 
7.2826419e-06 -2.8214597e-05 0.0000000e+00 
8.0406324e-05 -9.4076560e-05 0.0000000e+00 
0.0000000e+00 0.0000000e+00 0.0000000e+00 
0.0000000e+00 0.0000000e+00 0.0000000e+00 
-4.1659825e-04 -3.3149873e-03 0.0000000e+00 
-1.6227717e-05 -8.2642116e-05 0.0000000e+00 
-1.0639206e-04 -5.1535276e-04 0.0000000e+00 
-1.2920030e-05 -5.9904047e-05 0.0000000e+00 
-2.5376189e-06 -3.8777220e-05 0.0000000e+00 
4.2999727e-06 -4.4463359e-05 0.0000000e+00 
0.0000000e+00 0.0000000e+00 0.0000000e+00 
-7.6368291e-05 -3.4698361e-04 0.0000000e+00 
6.8488953e-06 -1.7381123e-04 0.0000000e+00 
1.3206478e-05 -3.4572611e-05 0.0000000e+00 
1.1177787e-04 -2.8979804e-04 0.0000000e+00 
0.0000000e+00 0.0000000e+00 0.0000000e+00 
1.1023266e-04 -3.0332935e-04 0.0000000e+00 
-1.5048425e-05 -1.2812448e-03 0.0000000e+00 
4.2323067e-05 -8.1709957e-05 0.0000000e+00 
1.3529186e-05 -1.8571973e-05 0.0000000e+00 
0.0000000e+00 0.0000000e+00 0.0000000e+00 
-1.2284821e-04 -8.7054599e-05 0.0000000e+00 
2.4078694e-05 -1.7981540e-05 0.0000000e+00 
2.4095276e-05 -2.1060587e-05 0.0000000e+00 
7.8861767e-06 -5.9716758e-06 0.0000000e+00 
0.0000000e+00 0.0000000e+00 0.0000000e+00 
-3.7592865e-05 1.5036831e-06 0.0000000e+00 
3.1054135e-06 2.1883716e-06 0.0000000e+00 
7.2406588e-06 -6.1812739e-07 0.0000000e+00 
3.0250108e-06 -1.2414375e-06 0.0000000e+00 
1.7906994e-07 1.9608533e-06 0.0000000e+00 
0.0000000e+00 0.0000000e+00 0.0000000e+00 
1.3166817e-06 8.4651271e-07 0.0000000e+00 
1.3459627e-06 -4.0221003e-08 0.0000000e+00 
1.0540618e-06 -1.3416737e-07 0.0000000e+00 
5.2906137e-07 5.9155815e-07 0.0000000e+00 
0.0000000e+00 0.0000000e+00 0.0000000e+00 
4.8359675e-07 2.4542277e-07 0.0000000e+00 
4.6507546e-07 9.2907285e-08 0.0000000e+00 
3.6172534e-07 -2.1563729e-08 0.0000000e+00 
4.5670632e-07 2.1078179e-07 0.0000000e+00 
2.1217279e-07 7.7136775e-08 0.0000000e+00 
0.0000000e+00 0.0000000e+00 0.0000000e+00 
1.6336043e-07 5.3055786e-08 0.0000000e+00 
1.2214981e-07 -4.5590185e-09 0.0000000e+00 
1.8931037e-07 5.6321095e-08 0.0000000e+00 
9.4882296e-08 2.5417327e-08 0.0000000e+00 
0.0000000e+00 0.0000000e+00 0.0000000e+00 
6.4281039e-08 8.4530898e-09 0.0000000e+00 
3.6632880e-08 -3.2017851e-09 0.0000000e+00 
7.2043512e-08 2.1407544e-08 0.0000000e+00 
3.7717889e-08 6.7056525e-09 0.0000000e+00 
0.0000000e+00 0.0000000e+00 0.0000000e+00 
2.7162491e-08 3.7182972e-09 0.0000000e+00 
1.1849034e-08 -1.1507858e-09 0.0000000e+00 
2.9849947e-08 7.8541609e-09 0.0000000e+00 
1.5301467e-08 2.3814108e-09 0.0000000e+00 
0.0000000e+00 0.0000000e+00 0.0000000e+00 
9.8839736e-09 -7.2733716e-12 0.0000000e+00 
4.1623949e-09 -6.5362332e-10 0.0000000e+00 
1.2170569e-08 2.7756719e-09 0.0000000e+00 
6.0172729e-09 5.8072697e-10 0.0000000e+00 
0.0000000e+00 0.0000000e+00 0.0000000e+00 
3.5086509e-09 8.8052378e-11 0.0000000e+00 
1.4215247e-09 -2.3651628e-10 0.0000000e+00 
4.8821214e-09 1.0175782e-09 0.0000000e+00 
2.3697058e-09 1.3175255e-10 0.0000000e+00 
0.0000000e+00 0.0000000e+00 0.0000000e+00 
1.2201024e-09 -8.9764446e-11 0.0000000e+00 
1.8794888e-09 3.6308334e-10 0.0000000e+00 
5.2463267e-10 -1.0463704e-10 0.0000000e+00 
8.5504698e-10 2.7821705e-11 0.0000000e+00 
0.0000000e+00 0.0000000e+00 0.0000000e+00 
4.3436640e-10 -1.5539518e-11 0.0000000e+00 
7.3531270e-10 1.2907039e-10 0.0000000e+00 
1.9060491e-10 -4.0126909e-11 0.0000000e+00 
3.3139433e-10 6.3009971e-12 0.0000000e+00 
0.0000000e+00 0.0000000e+00 0.0000000e+00 
2.6302729e-10 4.4266278e-11 0.0000000e+00 
9.2829452e-11 -1.5830654e-11 0.0000000e+00 
0.0000000e+00 0.0000000e+00 0.0000000e+00 
4.2383898e-11 -1.2709373e-11 0.0000000e+00 
6.8954224e-11 8.4139422e-14 0.0000000e+00 
9.4842398e-11 2.1020621e-11 0.0000000e+00 
0.0000000e+00 0.0000000e+00 0.0000000e+00 
0.0000000e+00 0.0000000e+00 0.0000000e+00 
0.0000000e+00 0.0000000e+00 0.0000000e+00 
0.0000000e+00 0.0000000e+00 0.0000000e+00 
0.0000000e+00 0.0000000e+00 0.0000000e+00 
CELL_DATA 38
FIELD FieldData 0
