# vtk DataFile Version 4.0
vtk output
ASCII
DATASET UNSTRUCTURED_GRID
POINTS 101 float
0.0000000e+00 0.0000000e+00 0.0000000e+00 
0.0000000e+00 2.5000000e-01 0.0000000e+00 
2.5000000e-01 0.0000000e+00 0.0000000e+00 
2.5000000e-01 2.5000000e-01 0.0000000e+00 
0.0000000e+00 5.0000000e-01 0.0000000e+00 
5.0000000e-01 0.0000000e+00 0.0000000e+00 
3.5416666e-01 5.0558227e-01 0.0000000e+00 
6.0416669e-01 2.5558227e-01 0.0000000e+00 
0.0000000e+00 7.5000000e-01 0.0000000e+00 
7.5000000e-01 0.0000000e+00 0.0000000e+00 
2.5000000e-01 7.5000000e-01 0.0000000e+00 
7.0833331e-01 5.1116455e-01 0.0000000e+00 
8.5416669e-01 2.5558227e-01 0.0000000e+00 
6.0416669e-01 7.5558227e-01 0.0000000e+00 
0.0000000e+00 1.0000000e+00 0.0000000e+00 
1.0000000e+00 0.0000000e+00 0.0000000e+00 
2.5000000e-01 1.0000000e+00 0.0000000e+00 
9.7916669e-01 5.3907591e-01 0.0000000e+00 
5.0000000e-01 1.0000000e+00 0.0000000e+00 
8.5416669e-01 7.5558227e-01 0.0000000e+00 
1.1250000e+00 2.8349364e-01 0.0000000e+00 
7.5000000e-01 1.0000000e+00 0.0000000e+00 
1.2500000e+00 0.0000000e+00 0.0000000e+00 
1.1250000e+00 7.8349364e-01 0.0000000e+00 
1.2500000e+00 5.6698728e-01 0.0000000e+00 
1.3750000e+00 2.8349364e-01 0.0000000e+00 
1.0000000e+00 1.0000000e+00 0.0000000e+00 
1.5000000e+00 0.0000000e+00 0.0000000e+00 
1.3750000e+00 7.8349364e-01 0.0000000e+00 
1.2500000e+00 1.0000000e+00 0.0000000e+00 
1.5000000e+00 5.6698728e-01 0.0000000e+00 
1.6250000e+00 2.8349364e-01 0.0000000e+00 
1.7500000e+00 0.0000000e+00 0.0000000e+00 
1.5000000e+00 1.0000000e+00 0.0000000e+00 
1.6250000e+00 7.8349364e-01 0.0000000e+00 
1.7500000e+00 5.6698728e-01 0.0000000e+00 
1.8750000e+00 2.8349364e-01 0.0000000e+00 
2.0000000e+00 0.0000000e+00 0.0000000e+00 
1.7500000e+00 1.0000000e+00 0.0000000e+00 
1.8750000e+00 7.8349364e-01 0.0000000e+00 
2.0000000e+00 5.6698728e-01 0.0000000e+00 
2.1250000e+00 2.8349364e-01 0.0000000e+00 
2.0000000e+00 1.0000000e+00 0.0000000e+00 
2.2500000e+00 0.0000000e+00 0.0000000e+00 
2.1250000e+00 7.8349364e-01 0.0000000e+00 
2.2500000e+00 5.6698728e-01 0.0000000e+00 
2.3750000e+00 2.8349364e-01 0.0000000e+00 
2.2500000e+00 1.0000000e+00 0.0000000e+00 
2.5000000e+00 0.0000000e+00 0.0000000e+00 
2.3750000e+00 7.8349364e-01 0.0000000e+00 
2.5000000e+00 5.6698728e-01 0.0000000e+00 
2.6250000e+00 2.8349364e-01 0.0000000e+00 
2.5000000e+00 1.0000000e+00 0.0000000e+00 
2.6250000e+00 7.8349364e-01 0.0000000e+00 
2.7500000e+00 0.0000000e+00 0.0000000e+00 
2.7500000e+00 5.6698728e-01 0.0000000e+00 
2.8750000e+00 2.8349364e-01 0.0000000e+00 
2.7500000e+00 1.0000000e+00 0.0000000e+00 
2.8750000e+00 7.8349364e-01 0.0000000e+00 
3.0000000e+00 0.0000000e+00 0.0000000e+00 
3.0000000e+00 5.0000000e-01 0.0000000e+00 
3.1250000e+00 2.1650635e-01 0.0000000e+00 
3.0000000e+00 1.0000000e+00 0.0000000e+00 
3.1250000e+00 7.1650636e-01 0.0000000e+00 
3.2500000e+00 0.0000000e+00 0.0000000e+00 
3.2500000e+00 4.3301269e-01 0.0000000e+00 
3.3750000e+00 2.1650635e-01 0.0000000e+00 
3.2500000e+00 1.0000000e+00 0.0000000e+00 
3.3750000e+00 7.1650636e-01 0.0000000e+00 
3.5000000e+00 0.0000000e+00 0.0000000e+00 
3.5000000e+00 4.3301269e-01 0.0000000e+00 
3.6250000e+00 2.1650635e-01 0.0000000e+00 
3.5000000e+00 1.0000000e+00 0.0000000e+00 
3.6250000e+00 7.1650636e-01 0.0000000e+00 
3.7500000e+00 0.0000000e+00 0.0000000e+00 
3.7500000e+00 4.3301269e-01 0.0000000e+00 
3.8750000e+00 2.1650635e-01 0.0000000e+00 
3.7500000e+00 1.0000000e+00 0.0000000e+00 
3.8750000e+00 7.1650636e-01 0.0000000e+00 
4.0000000e+00 0.0000000e+00 0.0000000e+00 
4.0208335e+00 4.6092409e-01 0.0000000e+00 
4.0000000e+00 1.0000000e+00 0.0000000e+00 
4.1458335e+00 2.4441773e-01 0.0000000e+00 
4.1458335e+00 7.4441773e-01 0.0000000e+00 
4.2500000e+00 0.0000000e+00 0.0000000e+00 
4.2916665e+00 4.8883545e-01 0.0000000e+00 
4.2500000e+00 1.0000000e+00 0.0000000e+00 
4.3958335e+00 2.4441773e-01 0.0000000e+00 
4.3958335e+00 7.4441773e-01 0.0000000e+00 
4.5000000e+00 0.0000000e+00 0.0000000e+00 
4.5000000e+00 1.0000000e+00 0.0000000e+00 
4.6458335e+00 4.9441773e-01 0.0000000e+00 
4.7500000e+00 0.0000000e+00 0.0000000e+00 
4.7500000e+00 2.5000000e-01 0.0000000e+00 
4.7500000e+00 7.5000000e-01 0.0000000e+00 
4.7500000e+00 1.0000000e+00 0.0000000e+00 
5.0000000e+00 0.0000000e+00 0.0000000e+00 
5.0000000e+00 2.5000000e-01 0.0000000e+00 
5.0000000e+00 5.0000000e-01 0.0000000e+00 
5.0000000e+00 7.5000000e-01 0.0000000e+00 
5.0000000e+00 1.0000000e+00 0.0000000e+00 

CELLS 38 266
6 0 5 4 2 3 1
6 79 89 85 84 87 82
6 62 52 55 57 53 58
6 85 89 98 87 93 91
6 79 85 75 82 80 76
6 55 52 45 53 49 50
6 75 85 81 80 83 78
6 79 75 69 76 71 74
6 45 52 42 49 47 44
6 55 45 48 50 46 51
6 69 75 65 71 70 66
6 65 75 72 70 73 68
6 69 65 59 66 61 64
6 59 65 55 61 60 56
6 37 48 45 43 46 41
6 100 90 98 95 94 99
6 26 18 11 21 13 19
6 11 18 4 13 10 6
6 26 11 24 19 17 23
6 24 11 15 17 12 20
6 26 24 33 23 28 29
6 33 24 35 28 30 34
6 35 24 27 30 25 31
6 33 35 42 34 39 38
6 42 35 45 39 40 44
6 45 35 37 40 36 41
6 15 27 24 22 25 20
6 96 98 89 97 93 92
6 81 72 75 77 73 78
6 14 4 18 8 10 16
6 5 15 11 9 12 7
6 48 59 55 54 56 51
6 90 81 85 86 83 88
6 27 37 35 32 36 31
6 72 62 65 67 63 68
6 62 55 65 58 60 63
6 90 85 98 88 91 94
6 5 11 4 7 6 3

CELL_TYPES 38
22
22
22
22
22
22
22
22
22
22
22
22
22
22
22
22
22
22
22
22
22
22
22
22
22
22
22
22
22
22
22
22
22
22
22
22
22
22
POINT_DATA 101
FIELD FieldData 1
DISPLACEMENT 3 101  float
0.0000000e+00 0.0000000e+00 0.0000000e+00 
0.0000000e+00 0.0000000e+00 0.0000000e+00 
0.0000000e+00 0.0000000e+00 0.0000000e+00 
-1.9572613e-07 -2.6305671e-08 0.0000000e+00 
0.0000000e+00 0.0000000e+00 0.0000000e+00 
0.0000000e+00 0.0000000e+00 0.0000000e+00 
-2.8410233e-07 5.3240242e-08 0.0000000e+00 
-1.1220230e-06 -6.7510840e-08 0.0000000e+00 
0.0000000e+00 0.0000000e+00 0.0000000e+00 
0.0000000e+00 0.0000000e+00 0.0000000e+00 
-1.6686025e-07 1.5378140e-08 0.0000000e+00 
-1.4281908e-06 2.2516646e-07 0.0000000e+00 
-3.4381665e-06 -8.7939355e-07 0.0000000e+00 
-6.4263838e-07 2.5483430e-07 0.0000000e+00 
0.0000000e+00 0.0000000e+00 0.0000000e+00 
0.0000000e+00 0.0000000e+00 0.0000000e+00 
-2.9595029e-07 7.4353672e-08 0.0000000e+00 
-7.9829988e-06 9.2245511e-07 0.0000000e+00 
-8.0177989e-07 2.4134445e-07 0.0000000e+00 
-1.3622952e-06 1.7501093e-06 0.0000000e+00 
-1.0914653e-05 -6.2067775e-06 0.0000000e+00 
-2.4646185e-06 1.0672364e-06 0.0000000e+00 
0.0000000e+00 0.0000000e+00 0.0000000e+00 
-2.6063237e-06 8.9770665e-06 0.0000000e+00 
-2.9735085e-05 -1.9938629e-05 0.0000000e+00 
-2.2268929e-05 -2.1527043e-05 0.0000000e+00 
-4.9548321e-06 7.9851252e-06 0.0000000e+00 
0.0000000e+00 0.0000000e+00 0.0000000e+00 
-2.7483329e-05 1.8925935e-05 0.0000000e+00 
4.0990853e-05 1.9729687e-05 0.0000000e+00 
-5.2976095e-05 -8.2474820e-05 0.0000000e+00 
-3.7578066e-05 -5.9407215e-05 0.0000000e+00 
0.0000000e+00 0.0000000e+00 0.0000000e+00 
1.7877831e-04 5.5583172e-05 0.0000000e+00 
-1.9749916e-04 -2.6472885e-04 0.0000000e+00 
-3.4568115e-05 -3.0508969e-04 0.0000000e+00 
-2.3735929e-05 -1.0932251e-04 0.0000000e+00 
0.0000000e+00 0.0000000e+00 0.0000000e+00 
3.9622857e-04 -1.1773114e-03 0.0000000e+00 
-3.9537874e-04 -1.4935528e-03 0.0000000e+00 
1.8590641e-05 -5.1083055e-04 0.0000000e+00 
2.9163344e-05 -1.0418852e-04 0.0000000e+00 
-6.6766806e-05 -5.4169060e-03 0.0000000e+00 
0.0000000e+00 0.0000000e+00 0.0000000e+00 
4.5971951e-04 -1.3344362e-03 0.0000000e+00 
3.5305784e-05 -2.3875925e-04 0.0000000e+00 
2.7003312e-05 -5.5356286e-05 0.0000000e+00 
-3.8744716e-04 -4.6091457e-04 0.0000000e+00 
0.0000000e+00 0.0000000e+00 0.0000000e+00 
1.1126530e-04 -1.4144075e-04 0.0000000e+00 
1.6330330e-05 -8.4462663e-05 0.0000000e+00 
5.4964894e-06 -3.6422007e-05 0.0000000e+00 
-5.0728937e-05 -1.0228940e-04 0.0000000e+00 
-3.0882689e-05 -1.1497516e-04 0.0000000e+00 
0.0000000e+00 0.0000000e+00 0.0000000e+00 
7.0033489e-06 -1.2391880e-04 0.0000000e+00 
2.7219367e-06 -4.1066221e-05 0.0000000e+00 
9.5187868e-05 -3.9067317e-04 0.0000000e+00 
-1.2550193e-04 -4.9099157e-04 0.0000000e+00 
0.0000000e+00 0.0000000e+00 0.0000000e+00 
2.5616700e-05 -1.2556971e-04 0.0000000e+00 
5.0009598e-06 -2.9955358e-05 0.0000000e+00 
-1.6498014e-05 -1.7456211e-03 0.0000000e+00 
1.2812794e-04 -3.3232171e-04 0.0000000e+00 
0.0000000e+00 0.0000000e+00 0.0000000e+00 
-8.1661901e-06 -5.4499371e-05 0.0000000e+00 
6.1315905e-06 -1.1900356e-05 0.0000000e+00 
-1.0500112e-04 -1.9432334e-04 0.0000000e+00 
5.1507337e-05 -6.4731772e-05 0.0000000e+00 
0.0000000e+00 0.0000000e+00 0.0000000e+00 
5.1950337e-06 -1.7594346e-05 0.0000000e+00 
3.7648247e-06 -4.8389375e-06 0.0000000e+00 
-4.6903908e-05 -2.5784801e-05 0.0000000e+00 
1.5827831e-05 -6.0284788e-06 0.0000000e+00 
0.0000000e+00 0.0000000e+00 0.0000000e+00 
5.7223547e-06 -7.9516376e-06 0.0000000e+00 
2.5151739e-06 -2.1352812e-06 0.0000000e+00 
-1.7006774e-05 1.0771857e-06 0.0000000e+00 
3.8769331e-06 1.0072744e-06 0.0000000e+00 
0.0000000e+00 0.0000000e+00 0.0000000e+00 
1.6200588e-06 -3.9693379e-07 0.0000000e+00 
-1.1235829e-06 2.2343590e-06 0.0000000e+00 
8.8122113e-07 -2.4569559e-07 0.0000000e+00 
8.5733211e-07 5.4556671e-07 0.0000000e+00 
0.0000000e+00 0.0000000e+00 0.0000000e+00 
4.9712770e-07 -1.4961876e-07 0.0000000e+00 
-6.0542845e-08 4.8836455e-07 0.0000000e+00 
3.1521864e-07 -7.9656083e-08 0.0000000e+00 
2.4942187e-07 1.6371031e-07 0.0000000e+00 
0.0000000e+00 0.0000000e+00 0.0000000e+00 
2.1966957e-07 1.9563490e-07 0.0000000e+00 
8.1726739e-08 1.9463373e-08 0.0000000e+00 
0.0000000e+00 0.0000000e+00 0.0000000e+00 
5.9458628e-08 -3.8958143e-09 0.0000000e+00 
5.1114490e-08 1.2195819e-08 0.0000000e+00 
9.5843852e-08 3.7426645e-08 0.0000000e+00 
0.0000000e+00 0.0000000e+00 0.0000000e+00 
0.0000000e+00 0.0000000e+00 0.0000000e+00 
0.0000000e+00 0.0000000e+00 0.0000000e+00 
0.0000000e+00 0.0000000e+00 0.0000000e+00 
0.0000000e+00 0.0000000e+00 0.0000000e+00 
CELL_DATA 38
FIELD FieldData 0
