# vtk DataFile Version 4.0
vtk output
ASCII
DATASET UNSTRUCTURED_GRID
POINTS 101 float
0.0000000e+00 0.0000000e+00 0.0000000e+00 
0.0000000e+00 2.5000000e-01 0.0000000e+00 
2.5000000e-01 0.0000000e+00 0.0000000e+00 
2.5000000e-01 2.5000000e-01 0.0000000e+00 
0.0000000e+00 5.0000000e-01 0.0000000e+00 
5.0000000e-01 0.0000000e+00 0.0000000e+00 
3.5416666e-01 5.0558227e-01 0.0000000e+00 
6.0416669e-01 2.5558227e-01 0.0000000e+00 
0.0000000e+00 7.5000000e-01 0.0000000e+00 
7.5000000e-01 0.0000000e+00 0.0000000e+00 
2.5000000e-01 7.5000000e-01 0.0000000e+00 
7.0833331e-01 5.1116455e-01 0.0000000e+00 
8.5416669e-01 2.5558227e-01 0.0000000e+00 
6.0416669e-01 7.5558227e-01 0.0000000e+00 
0.0000000e+00 1.0000000e+00 0.0000000e+00 
1.0000000e+00 0.0000000e+00 0.0000000e+00 
2.5000000e-01 1.0000000e+00 0.0000000e+00 
9.7916669e-01 5.3907591e-01 0.0000000e+00 
5.0000000e-01 1.0000000e+00 0.0000000e+00 
8.5416669e-01 7.5558227e-01 0.0000000e+00 
1.1250000e+00 2.8349364e-01 0.0000000e+00 
7.5000000e-01 1.0000000e+00 0.0000000e+00 
1.2500000e+00 0.0000000e+00 0.0000000e+00 
1.1250000e+00 7.8349364e-01 0.0000000e+00 
1.2500000e+00 5.6698728e-01 0.0000000e+00 
1.3750000e+00 2.8349364e-01 0.0000000e+00 
1.0000000e+00 1.0000000e+00 0.0000000e+00 
1.5000000e+00 0.0000000e+00 0.0000000e+00 
1.3750000e+00 7.8349364e-01 0.0000000e+00 
1.2500000e+00 1.0000000e+00 0.0000000e+00 
1.5000000e+00 5.6698728e-01 0.0000000e+00 
1.6250000e+00 2.8349364e-01 0.0000000e+00 
1.7500000e+00 0.0000000e+00 0.0000000e+00 
1.5000000e+00 1.0000000e+00 0.0000000e+00 
1.6250000e+00 7.8349364e-01 0.0000000e+00 
1.7500000e+00 5.6698728e-01 0.0000000e+00 
1.8750000e+00 2.8349364e-01 0.0000000e+00 
2.0000000e+00 0.0000000e+00 0.0000000e+00 
1.7500000e+00 1.0000000e+00 0.0000000e+00 
1.8750000e+00 7.8349364e-01 0.0000000e+00 
2.0000000e+00 5.6698728e-01 0.0000000e+00 
2.1250000e+00 2.8349364e-01 0.0000000e+00 
2.0000000e+00 1.0000000e+00 0.0000000e+00 
2.2500000e+00 0.0000000e+00 0.0000000e+00 
2.1250000e+00 7.8349364e-01 0.0000000e+00 
2.2500000e+00 5.6698728e-01 0.0000000e+00 
2.3750000e+00 2.8349364e-01 0.0000000e+00 
2.2500000e+00 1.0000000e+00 0.0000000e+00 
2.5000000e+00 0.0000000e+00 0.0000000e+00 
2.3750000e+00 7.8349364e-01 0.0000000e+00 
2.5000000e+00 5.6698728e-01 0.0000000e+00 
2.6250000e+00 2.8349364e-01 0.0000000e+00 
2.5000000e+00 1.0000000e+00 0.0000000e+00 
2.6250000e+00 7.8349364e-01 0.0000000e+00 
2.7500000e+00 0.0000000e+00 0.0000000e+00 
2.7500000e+00 5.6698728e-01 0.0000000e+00 
2.8750000e+00 2.8349364e-01 0.0000000e+00 
2.7500000e+00 1.0000000e+00 0.0000000e+00 
2.8750000e+00 7.8349364e-01 0.0000000e+00 
3.0000000e+00 0.0000000e+00 0.0000000e+00 
3.0000000e+00 5.0000000e-01 0.0000000e+00 
3.1250000e+00 2.1650635e-01 0.0000000e+00 
3.0000000e+00 1.0000000e+00 0.0000000e+00 
3.1250000e+00 7.1650636e-01 0.0000000e+00 
3.2500000e+00 0.0000000e+00 0.0000000e+00 
3.2500000e+00 4.3301269e-01 0.0000000e+00 
3.3750000e+00 2.1650635e-01 0.0000000e+00 
3.2500000e+00 1.0000000e+00 0.0000000e+00 
3.3750000e+00 7.1650636e-01 0.0000000e+00 
3.5000000e+00 0.0000000e+00 0.0000000e+00 
3.5000000e+00 4.3301269e-01 0.0000000e+00 
3.6250000e+00 2.1650635e-01 0.0000000e+00 
3.5000000e+00 1.0000000e+00 0.0000000e+00 
3.6250000e+00 7.1650636e-01 0.0000000e+00 
3.7500000e+00 0.0000000e+00 0.0000000e+00 
3.7500000e+00 4.3301269e-01 0.0000000e+00 
3.8750000e+00 2.1650635e-01 0.0000000e+00 
3.7500000e+00 1.0000000e+00 0.0000000e+00 
3.8750000e+00 7.1650636e-01 0.0000000e+00 
4.0000000e+00 0.0000000e+00 0.0000000e+00 
4.0208335e+00 4.6092409e-01 0.0000000e+00 
4.0000000e+00 1.0000000e+00 0.0000000e+00 
4.1458335e+00 2.4441773e-01 0.0000000e+00 
4.1458335e+00 7.4441773e-01 0.0000000e+00 
4.2500000e+00 0.0000000e+00 0.0000000e+00 
4.2916665e+00 4.8883545e-01 0.0000000e+00 
4.2500000e+00 1.0000000e+00 0.0000000e+00 
4.3958335e+00 2.4441773e-01 0.0000000e+00 
4.3958335e+00 7.4441773e-01 0.0000000e+00 
4.5000000e+00 0.0000000e+00 0.0000000e+00 
4.5000000e+00 1.0000000e+00 0.0000000e+00 
4.6458335e+00 4.9441773e-01 0.0000000e+00 
4.7500000e+00 0.0000000e+00 0.0000000e+00 
4.7500000e+00 2.5000000e-01 0.0000000e+00 
4.7500000e+00 7.5000000e-01 0.0000000e+00 
4.7500000e+00 1.0000000e+00 0.0000000e+00 
5.0000000e+00 0.0000000e+00 0.0000000e+00 
5.0000000e+00 2.5000000e-01 0.0000000e+00 
5.0000000e+00 5.0000000e-01 0.0000000e+00 
5.0000000e+00 7.5000000e-01 0.0000000e+00 
5.0000000e+00 1.0000000e+00 0.0000000e+00 

CELLS 38 266
6 0 5 4 2 3 1
6 79 89 85 84 87 82
6 62 52 55 57 53 58
6 85 89 98 87 93 91
6 79 85 75 82 80 76
6 55 52 45 53 49 50
6 75 85 81 80 83 78
6 79 75 69 76 71 74
6 45 52 42 49 47 44
6 55 45 48 50 46 51
6 69 75 65 71 70 66
6 65 75 72 70 73 68
6 69 65 59 66 61 64
6 59 65 55 61 60 56
6 37 48 45 43 46 41
6 100 90 98 95 94 99
6 26 18 11 21 13 19
6 11 18 4 13 10 6
6 26 11 24 19 17 23
6 24 11 15 17 12 20
6 26 24 33 23 28 29
6 33 24 35 28 30 34
6 35 24 27 30 25 31
6 33 35 42 34 39 38
6 42 35 45 39 40 44
6 45 35 37 40 36 41
6 15 27 24 22 25 20
6 96 98 89 97 93 92
6 81 72 75 77 73 78
6 14 4 18 8 10 16
6 5 15 11 9 12 7
6 48 59 55 54 56 51
6 90 81 85 86 83 88
6 27 37 35 32 36 31
6 72 62 65 67 63 68
6 62 55 65 58 60 63
6 90 85 98 88 91 94
6 5 11 4 7 6 3

CELL_TYPES 38
22
22
22
22
22
22
22
22
22
22
22
22
22
22
22
22
22
22
22
22
22
22
22
22
22
22
22
22
22
22
22
22
22
22
22
22
22
22
POINT_DATA 101
FIELD FieldData 1
DISPLACEMENT 3 101  float
0.0000000e+00 0.0000000e+00 0.0000000e+00 
0.0000000e+00 0.0000000e+00 0.0000000e+00 
0.0000000e+00 0.0000000e+00 0.0000000e+00 
-1.5860552e-10 -4.5287732e-11 0.0000000e+00 
0.0000000e+00 0.0000000e+00 0.0000000e+00 
0.0000000e+00 0.0000000e+00 0.0000000e+00 
-3.3857839e-10 -4.6689624e-11 0.0000000e+00 
-7.5286372e-10 -1.3047857e-10 0.0000000e+00 
0.0000000e+00 0.0000000e+00 0.0000000e+00 
0.0000000e+00 0.0000000e+00 0.0000000e+00 
-2.4834590e-10 3.1653816e-12 0.0000000e+00 
-1.6156474e-09 2.8606046e-11 0.0000000e+00 
-2.1089266e-09 -3.4265515e-10 0.0000000e+00 
-1.1960660e-09 7.1257882e-11 0.0000000e+00 
0.0000000e+00 0.0000000e+00 0.0000000e+00 
0.0000000e+00 0.0000000e+00 0.0000000e+00 
-3.4055012e-10 7.9004914e-11 0.0000000e+00 
-4.4254778e-09 -8.5309454e-11 0.0000000e+00 
-9.3604213e-10 1.8077306e-10 0.0000000e+00 
-3.0636689e-09 1.7138375e-10 0.0000000e+00 
-6.6283179e-09 -8.0128715e-10 0.0000000e+00 
-2.5643945e-09 4.9446347e-10 0.0000000e+00 
0.0000000e+00 0.0000000e+00 0.0000000e+00 
-8.8443679e-09 1.0124309e-09 0.0000000e+00 
-1.2963746e-08 1.3853600e-09 0.0000000e+00 
-1.8797238e-08 -1.7439505e-09 0.0000000e+00 
-6.5067156e-09 1.4676182e-09 0.0000000e+00 
0.0000000e+00 0.0000000e+00 0.0000000e+00 
-2.2088495e-08 2.8536662e-09 0.0000000e+00 
-1.6863433e-08 3.6771244e-09 0.0000000e+00 
-3.3160894e-08 2.5995950e-09 0.0000000e+00 
-5.2638960e-08 -3.0835912e-09 0.0000000e+00 
0.0000000e+00 0.0000000e+00 0.0000000e+00 
-4.2664286e-08 1.0597563e-08 0.0000000e+00 
-5.6243543e-08 9.9405009e-09 0.0000000e+00 
-8.7446104e-08 2.1557751e-08 0.0000000e+00 
-1.5576485e-07 -6.1013394e-09 0.0000000e+00 
0.0000000e+00 0.0000000e+00 0.0000000e+00 
-1.1462400e-07 2.7538094e-08 0.0000000e+00 
-1.3308588e-07 3.1349479e-08 0.0000000e+00 
-2.2236132e-07 4.3091340e-08 0.0000000e+00 
-4.5138816e-07 -1.8862419e-08 0.0000000e+00 
-2.8804982e-07 9.8621122e-08 0.0000000e+00 
0.0000000e+00 0.0000000e+00 0.0000000e+00 
-3.2217162e-07 1.0997222e-07 0.0000000e+00 
-6.0335475e-07 1.7849631e-07 0.0000000e+00 
-1.3553914e-06 -2.3197182e-07 0.0000000e+00 
-7.3005782e-07 2.8791615e-07 0.0000000e+00 
0.0000000e+00 0.0000000e+00 0.0000000e+00 
-7.2959762e-07 4.9692778e-07 0.0000000e+00 
-2.4116296e-06 3.4529248e-07 0.0000000e+00 
-3.8374378e-06 -1.2986444e-06 0.0000000e+00 
-1.5688120e-06 1.5712503e-06 0.0000000e+00 
-1.7190246e-06 1.9385764e-06 0.0000000e+00 
0.0000000e+00 0.0000000e+00 0.0000000e+00 
-7.8308522e-06 -3.4156035e-06 0.0000000e+00 
-9.4114166e-06 -5.2435776e-06 0.0000000e+00 
7.5379176e-06 3.7007119e-06 0.0000000e+00 
-8.6025311e-06 1.9582262e-06 0.0000000e+00 
0.0000000e+00 0.0000000e+00 0.0000000e+00 
-1.7549330e-05 -1.4170369e-05 0.0000000e+00 
-1.8995359e-05 -1.9496196e-05 0.0000000e+00 
3.2489057e-05 -2.5833156e-06 0.0000000e+00 
-4.5551664e-05 -2.6499636e-05 0.0000000e+00 
0.0000000e+00 0.0000000e+00 0.0000000e+00 
-3.5040826e-05 -8.0113634e-05 0.0000000e+00 
-2.4052370e-05 -4.8995382e-05 0.0000000e+00 
1.4505867e-04 -9.0540525e-05 0.0000000e+00 
-1.4433773e-04 -2.0094927e-04 0.0000000e+00 
0.0000000e+00 0.0000000e+00 0.0000000e+00 
-6.7309789e-05 -1.6236019e-04 0.0000000e+00 
-1.8559196e-05 -7.5540214e-05 0.0000000e+00 
2.6199798e-04 -9.7178965e-04 0.0000000e+00 
-2.1491469e-04 -7.1999890e-04 0.0000000e+00 
0.0000000e+00 0.0000000e+00 0.0000000e+00 
-8.0648679e-06 -2.7347452e-04 0.0000000e+00 
1.6198548e-05 -6.9250171e-05 0.0000000e+00 
-3.4989458e-05 -3.6802543e-03 0.0000000e+00 
2.7084310e-04 -6.2411331e-04 0.0000000e+00 
0.0000000e+00 0.0000000e+00 0.0000000e+00 
7.4471121e-05 -1.4813340e-04 0.0000000e+00 
-2.7877081e-04 -4.0420683e-04 0.0000000e+00 
2.2152801e-05 -4.8042308e-05 0.0000000e+00 
6.6561282e-05 -7.4868141e-05 0.0000000e+00 
0.0000000e+00 0.0000000e+00 0.0000000e+00 
2.6136469e-05 -6.7251050e-05 0.0000000e+00 
-8.2442348e-05 -4.9686303e-05 0.0000000e+00 
6.1909300e-06 -3.0487054e-05 0.0000000e+00 
-2.6486563e-05 -8.1135309e-05 0.0000000e+00 
0.0000000e+00 0.0000000e+00 0.0000000e+00 
3.3260414e-05 -3.5028363e-04 0.0000000e+00 
-2.6358111e-05 -1.0349194e-04 0.0000000e+00 
0.0000000e+00 0.0000000e+00 0.0000000e+00 
8.4637913e-06 -2.2890115e-05 0.0000000e+00 
-4.1097894e-05 -3.4318879e-04 0.0000000e+00 
1.2009249e-04 -1.1285945e-03 0.0000000e+00 
0.0000000e+00 0.0000000e+00 0.0000000e+00 
0.0000000e+00 0.0000000e+00 0.0000000e+00 
0.0000000e+00 0.0000000e+00 0.0000000e+00 
0.0000000e+00 0.0000000e+00 0.0000000e+00 
0.0000000e+00 0.0000000e+00 0.0000000e+00 
CELL_DATA 38
FIELD FieldData 0
