# vtk DataFile Version 4.0
vtk output
ASCII
DATASET UNSTRUCTURED_GRID
POINTS 101 float
0.0000000e+00 0.0000000e+00 0.0000000e+00 
0.0000000e+00 2.5000000e-01 0.0000000e+00 
2.5000000e-01 0.0000000e+00 0.0000000e+00 
2.5000000e-01 2.5000000e-01 0.0000000e+00 
0.0000000e+00 5.0000000e-01 0.0000000e+00 
5.0000000e-01 0.0000000e+00 0.0000000e+00 
3.5416666e-01 5.0558227e-01 0.0000000e+00 
6.0416669e-01 2.5558227e-01 0.0000000e+00 
0.0000000e+00 7.5000000e-01 0.0000000e+00 
7.5000000e-01 0.0000000e+00 0.0000000e+00 
2.5000000e-01 7.5000000e-01 0.0000000e+00 
7.0833331e-01 5.1116455e-01 0.0000000e+00 
8.5416669e-01 2.5558227e-01 0.0000000e+00 
6.0416669e-01 7.5558227e-01 0.0000000e+00 
0.0000000e+00 1.0000000e+00 0.0000000e+00 
1.0000000e+00 0.0000000e+00 0.0000000e+00 
2.5000000e-01 1.0000000e+00 0.0000000e+00 
9.7916669e-01 5.3907591e-01 0.0000000e+00 
5.0000000e-01 1.0000000e+00 0.0000000e+00 
8.5416669e-01 7.5558227e-01 0.0000000e+00 
1.1250000e+00 2.8349364e-01 0.0000000e+00 
7.5000000e-01 1.0000000e+00 0.0000000e+00 
1.2500000e+00 0.0000000e+00 0.0000000e+00 
1.1250000e+00 7.8349364e-01 0.0000000e+00 
1.2500000e+00 5.6698728e-01 0.0000000e+00 
1.3750000e+00 2.8349364e-01 0.0000000e+00 
1.0000000e+00 1.0000000e+00 0.0000000e+00 
1.5000000e+00 0.0000000e+00 0.0000000e+00 
1.3750000e+00 7.8349364e-01 0.0000000e+00 
1.2500000e+00 1.0000000e+00 0.0000000e+00 
1.5000000e+00 5.6698728e-01 0.0000000e+00 
1.6250000e+00 2.8349364e-01 0.0000000e+00 
1.7500000e+00 0.0000000e+00 0.0000000e+00 
1.5000000e+00 1.0000000e+00 0.0000000e+00 
1.6250000e+00 7.8349364e-01 0.0000000e+00 
1.7500000e+00 5.6698728e-01 0.0000000e+00 
1.8750000e+00 2.8349364e-01 0.0000000e+00 
2.0000000e+00 0.0000000e+00 0.0000000e+00 
1.7500000e+00 1.0000000e+00 0.0000000e+00 
1.8750000e+00 7.8349364e-01 0.0000000e+00 
2.0000000e+00 5.6698728e-01 0.0000000e+00 
2.1250000e+00 2.8349364e-01 0.0000000e+00 
2.0000000e+00 1.0000000e+00 0.0000000e+00 
2.2500000e+00 0.0000000e+00 0.0000000e+00 
2.1250000e+00 7.8349364e-01 0.0000000e+00 
2.2500000e+00 5.6698728e-01 0.0000000e+00 
2.3750000e+00 2.8349364e-01 0.0000000e+00 
2.2500000e+00 1.0000000e+00 0.0000000e+00 
2.5000000e+00 0.0000000e+00 0.0000000e+00 
2.3750000e+00 7.8349364e-01 0.0000000e+00 
2.5000000e+00 5.6698728e-01 0.0000000e+00 
2.6250000e+00 2.8349364e-01 0.0000000e+00 
2.5000000e+00 1.0000000e+00 0.0000000e+00 
2.6250000e+00 7.8349364e-01 0.0000000e+00 
2.7500000e+00 0.0000000e+00 0.0000000e+00 
2.7500000e+00 5.6698728e-01 0.0000000e+00 
2.8750000e+00 2.8349364e-01 0.0000000e+00 
2.7500000e+00 1.0000000e+00 0.0000000e+00 
2.8750000e+00 7.8349364e-01 0.0000000e+00 
3.0000000e+00 0.0000000e+00 0.0000000e+00 
3.0000000e+00 5.0000000e-01 0.0000000e+00 
3.1250000e+00 2.1650635e-01 0.0000000e+00 
3.0000000e+00 1.0000000e+00 0.0000000e+00 
3.1250000e+00 7.1650636e-01 0.0000000e+00 
3.2500000e+00 0.0000000e+00 0.0000000e+00 
3.2500000e+00 4.3301269e-01 0.0000000e+00 
3.3750000e+00 2.1650635e-01 0.0000000e+00 
3.2500000e+00 1.0000000e+00 0.0000000e+00 
3.3750000e+00 7.1650636e-01 0.0000000e+00 
3.5000000e+00 0.0000000e+00 0.0000000e+00 
3.5000000e+00 4.3301269e-01 0.0000000e+00 
3.6250000e+00 2.1650635e-01 0.0000000e+00 
3.5000000e+00 1.0000000e+00 0.0000000e+00 
3.6250000e+00 7.1650636e-01 0.0000000e+00 
3.7500000e+00 0.0000000e+00 0.0000000e+00 
3.7500000e+00 4.3301269e-01 0.0000000e+00 
3.8750000e+00 2.1650635e-01 0.0000000e+00 
3.7500000e+00 1.0000000e+00 0.0000000e+00 
3.8750000e+00 7.1650636e-01 0.0000000e+00 
4.0000000e+00 0.0000000e+00 0.0000000e+00 
4.0208335e+00 4.6092409e-01 0.0000000e+00 
4.0000000e+00 1.0000000e+00 0.0000000e+00 
4.1458335e+00 2.4441773e-01 0.0000000e+00 
4.1458335e+00 7.4441773e-01 0.0000000e+00 
4.2500000e+00 0.0000000e+00 0.0000000e+00 
4.2916665e+00 4.8883545e-01 0.0000000e+00 
4.2500000e+00 1.0000000e+00 0.0000000e+00 
4.3958335e+00 2.4441773e-01 0.0000000e+00 
4.3958335e+00 7.4441773e-01 0.0000000e+00 
4.5000000e+00 0.0000000e+00 0.0000000e+00 
4.5000000e+00 1.0000000e+00 0.0000000e+00 
4.6458335e+00 4.9441773e-01 0.0000000e+00 
4.7500000e+00 0.0000000e+00 0.0000000e+00 
4.7500000e+00 2.5000000e-01 0.0000000e+00 
4.7500000e+00 7.5000000e-01 0.0000000e+00 
4.7500000e+00 1.0000000e+00 0.0000000e+00 
5.0000000e+00 0.0000000e+00 0.0000000e+00 
5.0000000e+00 2.5000000e-01 0.0000000e+00 
5.0000000e+00 5.0000000e-01 0.0000000e+00 
5.0000000e+00 7.5000000e-01 0.0000000e+00 
5.0000000e+00 1.0000000e+00 0.0000000e+00 

CELLS 38 266
6 0 5 4 2 3 1
6 79 89 85 84 87 82
6 62 52 55 57 53 58
6 85 89 98 87 93 91
6 79 85 75 82 80 76
6 55 52 45 53 49 50
6 75 85 81 80 83 78
6 79 75 69 76 71 74
6 45 52 42 49 47 44
6 55 45 48 50 46 51
6 69 75 65 71 70 66
6 65 75 72 70 73 68
6 69 65 59 66 61 64
6 59 65 55 61 60 56
6 37 48 45 43 46 41
6 100 90 98 95 94 99
6 26 18 11 21 13 19
6 11 18 4 13 10 6
6 26 11 24 19 17 23
6 24 11 15 17 12 20
6 26 24 33 23 28 29
6 33 24 35 28 30 34
6 35 24 27 30 25 31
6 33 35 42 34 39 38
6 42 35 45 39 40 44
6 45 35 37 40 36 41
6 15 27 24 22 25 20
6 96 98 89 97 93 92
6 81 72 75 77 73 78
6 14 4 18 8 10 16
6 5 15 11 9 12 7
6 48 59 55 54 56 51
6 90 81 85 86 83 88
6 27 37 35 32 36 31
6 72 62 65 67 63 68
6 62 55 65 58 60 63
6 90 85 98 88 91 94
6 5 11 4 7 6 3

CELL_TYPES 38
22
22
22
22
22
22
22
22
22
22
22
22
22
22
22
22
22
22
22
22
22
22
22
22
22
22
22
22
22
22
22
22
22
22
22
22
22
22
POINT_DATA 101
FIELD FieldData 1
DISPLACEMENT 3 101  float
0.0000000e+00 0.0000000e+00 0.0000000e+00 
0.0000000e+00 0.0000000e+00 0.0000000e+00 
0.0000000e+00 0.0000000e+00 0.0000000e+00 
-8.6512118e-06 5.6511267e-06 0.0000000e+00 
0.0000000e+00 0.0000000e+00 0.0000000e+00 
0.0000000e+00 0.0000000e+00 0.0000000e+00 
-1.1247183e-05 2.0844978e-05 0.0000000e+00 
-3.8559254e-05 1.1502557e-05 0.0000000e+00 
0.0000000e+00 0.0000000e+00 0.0000000e+00 
0.0000000e+00 0.0000000e+00 0.0000000e+00 
7.1045605e-08 1.8498078e-05 0.0000000e+00 
-3.9283950e-05 3.5318997e-05 0.0000000e+00 
-8.4246509e-05 9.8300109e-07 0.0000000e+00 
4.3960990e-06 4.5089637e-05 0.0000000e+00 
0.0000000e+00 0.0000000e+00 0.0000000e+00 
0.0000000e+00 0.0000000e+00 0.0000000e+00 
-2.8022762e-06 1.7383025e-05 0.0000000e+00 
-8.3949380e-05 1.3293695e-05 0.0000000e+00 
6.9999583e-06 3.7901438e-05 0.0000000e+00 
1.4226379e-05 4.5152552e-05 0.0000000e+00 
-1.7360561e-04 -4.4437882e-05 0.0000000e+00 
5.2154752e-05 4.3425767e-05 0.0000000e+00 
0.0000000e+00 0.0000000e+00 0.0000000e+00 
4.7743924e-05 -1.0467682e-05 0.0000000e+00 
-1.5361418e-04 -9.8153367e-05 0.0000000e+00 
-2.9345782e-04 -1.7095718e-04 0.0000000e+00 
1.2988993e-04 1.6862068e-05 0.0000000e+00 
0.0000000e+00 0.0000000e+00 0.0000000e+00 
7.1665847e-05 -2.1141813e-04 0.0000000e+00 
3.1701298e-04 -1.0788716e-04 0.0000000e+00 
-3.0865351e-04 -4.0868469e-04 0.0000000e+00 
-4.3339559e-04 -4.4553133e-04 0.0000000e+00 
0.0000000e+00 0.0000000e+00 0.0000000e+00 
5.9442467e-04 -4.4647168e-04 0.0000000e+00 
6.0661165e-05 -7.4466685e-04 0.0000000e+00 
-5.3407950e-04 -1.1370896e-03 0.0000000e+00 
-4.9711997e-04 -8.8993134e-04 0.0000000e+00 
0.0000000e+00 0.0000000e+00 0.0000000e+00 
1.0511572e-03 -1.3166406e-03 0.0000000e+00 
-5.2030435e-05 -1.9677996e-03 0.0000000e+00 
-5.7763862e-04 -2.3900145e-03 0.0000000e+00 
-3.2617769e-04 -1.3418585e-03 0.0000000e+00 
1.4683418e-03 -3.1963044e-03 0.0000000e+00 
0.0000000e+00 0.0000000e+00 0.0000000e+00 
-3.6802155e-04 -4.5350711e-03 0.0000000e+00 
-1.2672658e-04 -3.4559311e-03 0.0000000e+00 
6.7139037e-05 -1.4519419e-03 0.0000000e+00 
3.1654761e-04 -8.3541563e-03 0.0000000e+00 
0.0000000e+00 0.0000000e+00 0.0000000e+00 
2.7438992e-04 -5.1129241e-03 0.0000000e+00 
3.7639056e-04 -2.8848096e-03 0.0000000e+00 
2.9341053e-04 -1.1797911e-03 0.0000000e+00 
-1.0382523e-03 -4.9186610e-03 0.0000000e+00 
1.8446470e-04 -2.9765684e-03 0.0000000e+00 
0.0000000e+00 0.0000000e+00 0.0000000e+00 
3.7734120e-04 -1.8535246e-03 0.0000000e+00 
2.7894738e-04 -8.6542073e-04 0.0000000e+00 
-7.9259725e-04 -2.3233653e-03 0.0000000e+00 
-3.1309180e-05 -1.7623375e-03 0.0000000e+00 
0.0000000e+00 0.0000000e+00 0.0000000e+00 
2.1767349e-04 -1.2644109e-03 0.0000000e+00 
2.1227100e-04 -5.2427832e-04 0.0000000e+00 
-2.8209304e-04 -1.8136790e-03 0.0000000e+00 
-8.8841756e-05 -1.6907678e-03 0.0000000e+00 
0.0000000e+00 0.0000000e+00 0.0000000e+00 
2.4163292e-04 -9.7776751e-04 0.0000000e+00 
2.2169412e-04 -4.1260905e-04 0.0000000e+00 
-3.4743710e-04 -2.9086771e-03 0.0000000e+00 
1.0261033e-04 -1.5348535e-03 0.0000000e+00 
0.0000000e+00 0.0000000e+00 0.0000000e+00 
2.9503155e-04 -7.0296618e-04 0.0000000e+00 
2.1825965e-04 -2.7645507e-04 0.0000000e+00 
-5.3239067e-04 -1.6333326e-03 0.0000000e+00 
1.1521522e-04 -8.3359767e-04 0.0000000e+00 
0.0000000e+00 0.0000000e+00 0.0000000e+00 
2.5753787e-04 -3.8163355e-04 0.0000000e+00 
1.7426661e-04 -1.4815746e-04 0.0000000e+00 
-4.2923074e-04 -6.2294118e-04 0.0000000e+00 
5.9670812e-05 -3.3166294e-04 0.0000000e+00 
0.0000000e+00 0.0000000e+00 0.0000000e+00 
1.6251308e-04 -1.5131368e-04 0.0000000e+00 
-2.6845915e-04 -2.0448679e-04 0.0000000e+00 
1.1790030e-04 -6.4064770e-05 0.0000000e+00 
2.9540306e-06 -9.0069465e-05 0.0000000e+00 
0.0000000e+00 0.0000000e+00 0.0000000e+00 
8.4169580e-05 -4.2014461e-05 0.0000000e+00 
-1.4155127e-04 -5.7792462e-05 0.0000000e+00 
6.7121699e-05 -2.1330281e-05 0.0000000e+00 
-1.8747003e-06 -1.0478284e-05 0.0000000e+00 
0.0000000e+00 0.0000000e+00 0.0000000e+00 
-5.4517084e-05 5.4724637e-07 0.0000000e+00 
2.9891835e-05 3.7866423e-06 0.0000000e+00 
0.0000000e+00 0.0000000e+00 0.0000000e+00 
2.0860991e-05 -1.6025026e-06 0.0000000e+00 
-2.4008236e-06 1.1157081e-05 0.0000000e+00 
-1.9645129e-05 6.9644511e-06 0.0000000e+00 
0.0000000e+00 0.0000000e+00 0.0000000e+00 
0.0000000e+00 0.0000000e+00 0.0000000e+00 
0.0000000e+00 0.0000000e+00 0.0000000e+00 
0.0000000e+00 0.0000000e+00 0.0000000e+00 
0.0000000e+00 0.0000000e+00 0.0000000e+00 
CELL_DATA 38
FIELD FieldData 0
