# vtk DataFile Version 4.0
vtk output
ASCII
DATASET UNSTRUCTURED_GRID
POINTS 101 float
0.0000000e+00 0.0000000e+00 0.0000000e+00 
0.0000000e+00 2.5000000e-01 0.0000000e+00 
2.5000000e-01 0.0000000e+00 0.0000000e+00 
2.5000000e-01 2.5000000e-01 0.0000000e+00 
0.0000000e+00 5.0000000e-01 0.0000000e+00 
5.0000000e-01 0.0000000e+00 0.0000000e+00 
3.5416666e-01 5.0558227e-01 0.0000000e+00 
6.0416669e-01 2.5558227e-01 0.0000000e+00 
0.0000000e+00 7.5000000e-01 0.0000000e+00 
7.5000000e-01 0.0000000e+00 0.0000000e+00 
2.5000000e-01 7.5000000e-01 0.0000000e+00 
7.0833331e-01 5.1116455e-01 0.0000000e+00 
8.5416669e-01 2.5558227e-01 0.0000000e+00 
6.0416669e-01 7.5558227e-01 0.0000000e+00 
0.0000000e+00 1.0000000e+00 0.0000000e+00 
1.0000000e+00 0.0000000e+00 0.0000000e+00 
2.5000000e-01 1.0000000e+00 0.0000000e+00 
9.7916669e-01 5.3907591e-01 0.0000000e+00 
5.0000000e-01 1.0000000e+00 0.0000000e+00 
8.5416669e-01 7.5558227e-01 0.0000000e+00 
1.1250000e+00 2.8349364e-01 0.0000000e+00 
7.5000000e-01 1.0000000e+00 0.0000000e+00 
1.2500000e+00 0.0000000e+00 0.0000000e+00 
1.1250000e+00 7.8349364e-01 0.0000000e+00 
1.2500000e+00 5.6698728e-01 0.0000000e+00 
1.3750000e+00 2.8349364e-01 0.0000000e+00 
1.0000000e+00 1.0000000e+00 0.0000000e+00 
1.5000000e+00 0.0000000e+00 0.0000000e+00 
1.3750000e+00 7.8349364e-01 0.0000000e+00 
1.2500000e+00 1.0000000e+00 0.0000000e+00 
1.5000000e+00 5.6698728e-01 0.0000000e+00 
1.6250000e+00 2.8349364e-01 0.0000000e+00 
1.7500000e+00 0.0000000e+00 0.0000000e+00 
1.5000000e+00 1.0000000e+00 0.0000000e+00 
1.6250000e+00 7.8349364e-01 0.0000000e+00 
1.7500000e+00 5.6698728e-01 0.0000000e+00 
1.8750000e+00 2.8349364e-01 0.0000000e+00 
2.0000000e+00 0.0000000e+00 0.0000000e+00 
1.7500000e+00 1.0000000e+00 0.0000000e+00 
1.8750000e+00 7.8349364e-01 0.0000000e+00 
2.0000000e+00 5.6698728e-01 0.0000000e+00 
2.1250000e+00 2.8349364e-01 0.0000000e+00 
2.0000000e+00 1.0000000e+00 0.0000000e+00 
2.2500000e+00 0.0000000e+00 0.0000000e+00 
2.1250000e+00 7.8349364e-01 0.0000000e+00 
2.2500000e+00 5.6698728e-01 0.0000000e+00 
2.3750000e+00 2.8349364e-01 0.0000000e+00 
2.2500000e+00 1.0000000e+00 0.0000000e+00 
2.5000000e+00 0.0000000e+00 0.0000000e+00 
2.3750000e+00 7.8349364e-01 0.0000000e+00 
2.5000000e+00 5.6698728e-01 0.0000000e+00 
2.6250000e+00 2.8349364e-01 0.0000000e+00 
2.5000000e+00 1.0000000e+00 0.0000000e+00 
2.6250000e+00 7.8349364e-01 0.0000000e+00 
2.7500000e+00 0.0000000e+00 0.0000000e+00 
2.7500000e+00 5.6698728e-01 0.0000000e+00 
2.8750000e+00 2.8349364e-01 0.0000000e+00 
2.7500000e+00 1.0000000e+00 0.0000000e+00 
2.8750000e+00 7.8349364e-01 0.0000000e+00 
3.0000000e+00 0.0000000e+00 0.0000000e+00 
3.0000000e+00 5.0000000e-01 0.0000000e+00 
3.1250000e+00 2.1650635e-01 0.0000000e+00 
3.0000000e+00 1.0000000e+00 0.0000000e+00 
3.1250000e+00 7.1650636e-01 0.0000000e+00 
3.2500000e+00 0.0000000e+00 0.0000000e+00 
3.2500000e+00 4.3301269e-01 0.0000000e+00 
3.3750000e+00 2.1650635e-01 0.0000000e+00 
3.2500000e+00 1.0000000e+00 0.0000000e+00 
3.3750000e+00 7.1650636e-01 0.0000000e+00 
3.5000000e+00 0.0000000e+00 0.0000000e+00 
3.5000000e+00 4.3301269e-01 0.0000000e+00 
3.6250000e+00 2.1650635e-01 0.0000000e+00 
3.5000000e+00 1.0000000e+00 0.0000000e+00 
3.6250000e+00 7.1650636e-01 0.0000000e+00 
3.7500000e+00 0.0000000e+00 0.0000000e+00 
3.7500000e+00 4.3301269e-01 0.0000000e+00 
3.8750000e+00 2.1650635e-01 0.0000000e+00 
3.7500000e+00 1.0000000e+00 0.0000000e+00 
3.8750000e+00 7.1650636e-01 0.0000000e+00 
4.0000000e+00 0.0000000e+00 0.0000000e+00 
4.0208335e+00 4.6092409e-01 0.0000000e+00 
4.0000000e+00 1.0000000e+00 0.0000000e+00 
4.1458335e+00 2.4441773e-01 0.0000000e+00 
4.1458335e+00 7.4441773e-01 0.0000000e+00 
4.2500000e+00 0.0000000e+00 0.0000000e+00 
4.2916665e+00 4.8883545e-01 0.0000000e+00 
4.2500000e+00 1.0000000e+00 0.0000000e+00 
4.3958335e+00 2.4441773e-01 0.0000000e+00 
4.3958335e+00 7.4441773e-01 0.0000000e+00 
4.5000000e+00 0.0000000e+00 0.0000000e+00 
4.5000000e+00 1.0000000e+00 0.0000000e+00 
4.6458335e+00 4.9441773e-01 0.0000000e+00 
4.7500000e+00 0.0000000e+00 0.0000000e+00 
4.7500000e+00 2.5000000e-01 0.0000000e+00 
4.7500000e+00 7.5000000e-01 0.0000000e+00 
4.7500000e+00 1.0000000e+00 0.0000000e+00 
5.0000000e+00 0.0000000e+00 0.0000000e+00 
5.0000000e+00 2.5000000e-01 0.0000000e+00 
5.0000000e+00 5.0000000e-01 0.0000000e+00 
5.0000000e+00 7.5000000e-01 0.0000000e+00 
5.0000000e+00 1.0000000e+00 0.0000000e+00 

CELLS 38 266
6 0 5 4 2 3 1
6 79 89 85 84 87 82
6 62 52 55 57 53 58
6 85 89 98 87 93 91
6 79 85 75 82 80 76
6 55 52 45 53 49 50
6 75 85 81 80 83 78
6 79 75 69 76 71 74
6 45 52 42 49 47 44
6 55 45 48 50 46 51
6 69 75 65 71 70 66
6 65 75 72 70 73 68
6 69 65 59 66 61 64
6 59 65 55 61 60 56
6 37 48 45 43 46 41
6 100 90 98 95 94 99
6 26 18 11 21 13 19
6 11 18 4 13 10 6
6 26 11 24 19 17 23
6 24 11 15 17 12 20
6 26 24 33 23 28 29
6 33 24 35 28 30 34
6 35 24 27 30 25 31
6 33 35 42 34 39 38
6 42 35 45 39 40 44
6 45 35 37 40 36 41
6 15 27 24 22 25 20
6 96 98 89 97 93 92
6 81 72 75 77 73 78
6 14 4 18 8 10 16
6 5 15 11 9 12 7
6 48 59 55 54 56 51
6 90 81 85 86 83 88
6 27 37 35 32 36 31
6 72 62 65 67 63 68
6 62 55 65 58 60 63
6 90 85 98 88 91 94
6 5 11 4 7 6 3

CELL_TYPES 38
22
22
22
22
22
22
22
22
22
22
22
22
22
22
22
22
22
22
22
22
22
22
22
22
22
22
22
22
22
22
22
22
22
22
22
22
22
22
POINT_DATA 101
FIELD FieldData 1
DISPLACEMENT 3 101  float
0.0000000e+00 0.0000000e+00 0.0000000e+00 
0.0000000e+00 0.0000000e+00 0.0000000e+00 
0.0000000e+00 0.0000000e+00 0.0000000e+00 
-1.1923304e-06 1.3721373e-06 0.0000000e+00 
0.0000000e+00 0.0000000e+00 0.0000000e+00 
0.0000000e+00 0.0000000e+00 0.0000000e+00 
-2.9465687e-06 5.1695329e-06 0.0000000e+00 
-6.0315388e-06 5.7465181e-06 0.0000000e+00 
0.0000000e+00 0.0000000e+00 0.0000000e+00 
0.0000000e+00 0.0000000e+00 0.0000000e+00 
-3.1235552e-06 4.0694313e-06 0.0000000e+00 
-8.7298558e-06 1.6180005e-05 0.0000000e+00 
-1.4976124e-05 9.3726230e-06 0.0000000e+00 
-6.6441530e-06 1.5600041e-05 0.0000000e+00 
0.0000000e+00 0.0000000e+00 0.0000000e+00 
0.0000000e+00 0.0000000e+00 0.0000000e+00 
-6.5537065e-06 5.0169756e-06 0.0000000e+00 
-1.7175214e-05 2.8381768e-05 0.0000000e+00 
-1.1571474e-05 1.2598543e-05 0.0000000e+00 
-6.8922313e-06 2.7830254e-05 0.0000000e+00 
-3.6478948e-05 1.4836686e-05 0.0000000e+00 
-1.1794317e-05 2.3000941e-05 0.0000000e+00 
0.0000000e+00 0.0000000e+00 0.0000000e+00 
-1.7486784e-06 4.5133595e-05 0.0000000e+00 
-3.0901669e-05 4.2304182e-05 0.0000000e+00 
-7.4561554e-05 9.6461399e-06 0.0000000e+00 
-5.7351176e-06 3.6042187e-05 0.0000000e+00 
0.0000000e+00 0.0000000e+00 0.0000000e+00 
1.0673263e-05 5.0666680e-05 0.0000000e+00 
2.4154737e-05 4.6759091e-05 0.0000000e+00 
-6.4070016e-05 2.9958090e-05 0.0000000e+00 
-1.4101168e-04 -1.8340703e-05 0.0000000e+00 
0.0000000e+00 0.0000000e+00 0.0000000e+00 
8.1303457e-05 3.6153211e-05 0.0000000e+00 
3.1660602e-05 2.4589895e-05 0.0000000e+00 
-1.2274226e-04 -3.3280205e-05 0.0000000e+00 
-2.4802788e-04 -1.0817532e-04 0.0000000e+00 
0.0000000e+00 0.0000000e+00 0.0000000e+00 
2.2410431e-04 -3.7565875e-05 0.0000000e+00 
5.9232418e-05 -9.9947451e-05 0.0000000e+00 
-2.5555541e-04 -2.4797788e-04 0.0000000e+00 
-3.8777679e-04 -3.2172934e-04 0.0000000e+00 
4.4407658e-04 -2.5746861e-04 0.0000000e+00 
0.0000000e+00 0.0000000e+00 0.0000000e+00 
7.3717689e-05 -4.5820180e-04 0.0000000e+00 
-4.6976635e-04 -8.0756191e-04 0.0000000e+00 
-4.9101177e-04 -7.0697389e-04 0.0000000e+00 
8.8281161e-04 -8.4334466e-04 0.0000000e+00 
0.0000000e+00 0.0000000e+00 0.0000000e+00 
1.1380512e-05 -1.3009941e-03 0.0000000e+00 
-5.8814132e-04 -1.8918454e-03 0.0000000e+00 
-4.1433284e-04 -1.1882700e-03 0.0000000e+00 
1.4479535e-03 -1.9392056e-03 0.0000000e+00 
-3.9682555e-04 -3.6237785e-03 0.0000000e+00 
0.0000000e+00 0.0000000e+00 0.0000000e+00 
-3.0891236e-04 -3.1606872e-03 0.0000000e+00 
-7.9937956e-05 -1.4501637e-03 0.0000000e+00 
8.0144609e-04 -7.0322589e-03 0.0000000e+00 
-6.7812027e-05 -5.4489789e-03 0.0000000e+00 
0.0000000e+00 0.0000000e+00 0.0000000e+00 
2.0135142e-04 -2.7575684e-03 0.0000000e+00 
1.7099589e-04 -9.8782056e-04 0.0000000e+00 
-6.2452012e-04 -7.4599944e-03 0.0000000e+00 
4.4130473e-04 -3.6766180e-03 0.0000000e+00 
0.0000000e+00 0.0000000e+00 0.0000000e+00 
3.3858017e-04 -1.7224050e-03 0.0000000e+00 
2.4653363e-04 -7.4708054e-04 0.0000000e+00 
-8.5842627e-04 -3.1054749e-03 0.0000000e+00 
1.9754229e-04 -2.0255053e-03 0.0000000e+00 
0.0000000e+00 0.0000000e+00 0.0000000e+00 
2.8266024e-04 -1.2315189e-03 0.0000000e+00 
2.2396831e-04 -5.7163701e-04 0.0000000e+00 
-5.1069574e-04 -1.7226828e-03 0.0000000e+00 
-6.9473470e-05 -1.6795439e-03 0.0000000e+00 
0.0000000e+00 0.0000000e+00 0.0000000e+00 
2.7054606e-04 -1.0443147e-03 0.0000000e+00 
2.2221090e-04 -4.6156248e-04 0.0000000e+00 
-3.6043752e-04 -2.6562847e-03 0.0000000e+00 
2.8758200e-06 -1.7163208e-03 0.0000000e+00 
0.0000000e+00 0.0000000e+00 0.0000000e+00 
2.7864086e-04 -8.4179762e-04 0.0000000e+00 
-4.8541735e-04 -2.5190550e-03 0.0000000e+00 
2.3749436e-04 -3.5202753e-04 0.0000000e+00 
1.2481962e-04 -1.1365175e-03 0.0000000e+00 
0.0000000e+00 0.0000000e+00 0.0000000e+00 
2.3918097e-04 -4.6301927e-04 0.0000000e+00 
-5.1084498e-04 -8.8338763e-04 0.0000000e+00 
1.8681094e-04 -1.9152917e-04 0.0000000e+00 
4.9524959e-05 -4.2630467e-04 0.0000000e+00 
0.0000000e+00 0.0000000e+00 0.0000000e+00 
-3.2816149e-04 -2.8681383e-04 0.0000000e+00 
1.2455590e-04 -1.1693254e-04 0.0000000e+00 
0.0000000e+00 0.0000000e+00 0.0000000e+00 
7.9285877e-05 -5.0521878e-05 0.0000000e+00 
-5.8019382e-06 -4.8300542e-05 0.0000000e+00 
-1.5508577e-04 -7.0065376e-05 0.0000000e+00 
0.0000000e+00 0.0000000e+00 0.0000000e+00 
0.0000000e+00 0.0000000e+00 0.0000000e+00 
0.0000000e+00 0.0000000e+00 0.0000000e+00 
0.0000000e+00 0.0000000e+00 0.0000000e+00 
0.0000000e+00 0.0000000e+00 0.0000000e+00 
CELL_DATA 38
FIELD FieldData 0
