# vtk DataFile Version 4.0
vtk output
ASCII
DATASET UNSTRUCTURED_GRID
POINTS 101 float
0.0000000e+00 0.0000000e+00 0.0000000e+00 
0.0000000e+00 2.5000000e-01 0.0000000e+00 
2.5000000e-01 0.0000000e+00 0.0000000e+00 
2.5000000e-01 2.5000000e-01 0.0000000e+00 
0.0000000e+00 5.0000000e-01 0.0000000e+00 
5.0000000e-01 0.0000000e+00 0.0000000e+00 
3.5416666e-01 5.0558227e-01 0.0000000e+00 
6.0416669e-01 2.5558227e-01 0.0000000e+00 
0.0000000e+00 7.5000000e-01 0.0000000e+00 
7.5000000e-01 0.0000000e+00 0.0000000e+00 
2.5000000e-01 7.5000000e-01 0.0000000e+00 
7.0833331e-01 5.1116455e-01 0.0000000e+00 
8.5416669e-01 2.5558227e-01 0.0000000e+00 
6.0416669e-01 7.5558227e-01 0.0000000e+00 
0.0000000e+00 1.0000000e+00 0.0000000e+00 
1.0000000e+00 0.0000000e+00 0.0000000e+00 
2.5000000e-01 1.0000000e+00 0.0000000e+00 
9.7916669e-01 5.3907591e-01 0.0000000e+00 
5.0000000e-01 1.0000000e+00 0.0000000e+00 
8.5416669e-01 7.5558227e-01 0.0000000e+00 
1.1250000e+00 2.8349364e-01 0.0000000e+00 
7.5000000e-01 1.0000000e+00 0.0000000e+00 
1.2500000e+00 0.0000000e+00 0.0000000e+00 
1.1250000e+00 7.8349364e-01 0.0000000e+00 
1.2500000e+00 5.6698728e-01 0.0000000e+00 
1.3750000e+00 2.8349364e-01 0.0000000e+00 
1.0000000e+00 1.0000000e+00 0.0000000e+00 
1.5000000e+00 0.0000000e+00 0.0000000e+00 
1.3750000e+00 7.8349364e-01 0.0000000e+00 
1.2500000e+00 1.0000000e+00 0.0000000e+00 
1.5000000e+00 5.6698728e-01 0.0000000e+00 
1.6250000e+00 2.8349364e-01 0.0000000e+00 
1.7500000e+00 0.0000000e+00 0.0000000e+00 
1.5000000e+00 1.0000000e+00 0.0000000e+00 
1.6250000e+00 7.8349364e-01 0.0000000e+00 
1.7500000e+00 5.6698728e-01 0.0000000e+00 
1.8750000e+00 2.8349364e-01 0.0000000e+00 
2.0000000e+00 0.0000000e+00 0.0000000e+00 
1.7500000e+00 1.0000000e+00 0.0000000e+00 
1.8750000e+00 7.8349364e-01 0.0000000e+00 
2.0000000e+00 5.6698728e-01 0.0000000e+00 
2.1250000e+00 2.8349364e-01 0.0000000e+00 
2.0000000e+00 1.0000000e+00 0.0000000e+00 
2.2500000e+00 0.0000000e+00 0.0000000e+00 
2.1250000e+00 7.8349364e-01 0.0000000e+00 
2.2500000e+00 5.6698728e-01 0.0000000e+00 
2.3750000e+00 2.8349364e-01 0.0000000e+00 
2.2500000e+00 1.0000000e+00 0.0000000e+00 
2.5000000e+00 0.0000000e+00 0.0000000e+00 
2.3750000e+00 7.8349364e-01 0.0000000e+00 
2.5000000e+00 5.6698728e-01 0.0000000e+00 
2.6250000e+00 2.8349364e-01 0.0000000e+00 
2.5000000e+00 1.0000000e+00 0.0000000e+00 
2.6250000e+00 7.8349364e-01 0.0000000e+00 
2.7500000e+00 0.0000000e+00 0.0000000e+00 
2.7500000e+00 5.6698728e-01 0.0000000e+00 
2.8750000e+00 2.8349364e-01 0.0000000e+00 
2.7500000e+00 1.0000000e+00 0.0000000e+00 
2.8750000e+00 7.8349364e-01 0.0000000e+00 
3.0000000e+00 0.0000000e+00 0.0000000e+00 
3.0000000e+00 5.0000000e-01 0.0000000e+00 
3.1250000e+00 2.1650635e-01 0.0000000e+00 
3.0000000e+00 1.0000000e+00 0.0000000e+00 
3.1250000e+00 7.1650636e-01 0.0000000e+00 
3.2500000e+00 0.0000000e+00 0.0000000e+00 
3.2500000e+00 4.3301269e-01 0.0000000e+00 
3.3750000e+00 2.1650635e-01 0.0000000e+00 
3.2500000e+00 1.0000000e+00 0.0000000e+00 
3.3750000e+00 7.1650636e-01 0.0000000e+00 
3.5000000e+00 0.0000000e+00 0.0000000e+00 
3.5000000e+00 4.3301269e-01 0.0000000e+00 
3.6250000e+00 2.1650635e-01 0.0000000e+00 
3.5000000e+00 1.0000000e+00 0.0000000e+00 
3.6250000e+00 7.1650636e-01 0.0000000e+00 
3.7500000e+00 0.0000000e+00 0.0000000e+00 
3.7500000e+00 4.3301269e-01 0.0000000e+00 
3.8750000e+00 2.1650635e-01 0.0000000e+00 
3.7500000e+00 1.0000000e+00 0.0000000e+00 
3.8750000e+00 7.1650636e-01 0.0000000e+00 
4.0000000e+00 0.0000000e+00 0.0000000e+00 
4.0208335e+00 4.6092409e-01 0.0000000e+00 
4.0000000e+00 1.0000000e+00 0.0000000e+00 
4.1458335e+00 2.4441773e-01 0.0000000e+00 
4.1458335e+00 7.4441773e-01 0.0000000e+00 
4.2500000e+00 0.0000000e+00 0.0000000e+00 
4.2916665e+00 4.8883545e-01 0.0000000e+00 
4.2500000e+00 1.0000000e+00 0.0000000e+00 
4.3958335e+00 2.4441773e-01 0.0000000e+00 
4.3958335e+00 7.4441773e-01 0.0000000e+00 
4.5000000e+00 0.0000000e+00 0.0000000e+00 
4.5000000e+00 1.0000000e+00 0.0000000e+00 
4.6458335e+00 4.9441773e-01 0.0000000e+00 
4.7500000e+00 0.0000000e+00 0.0000000e+00 
4.7500000e+00 2.5000000e-01 0.0000000e+00 
4.7500000e+00 7.5000000e-01 0.0000000e+00 
4.7500000e+00 1.0000000e+00 0.0000000e+00 
5.0000000e+00 0.0000000e+00 0.0000000e+00 
5.0000000e+00 2.5000000e-01 0.0000000e+00 
5.0000000e+00 5.0000000e-01 0.0000000e+00 
5.0000000e+00 7.5000000e-01 0.0000000e+00 
5.0000000e+00 1.0000000e+00 0.0000000e+00 

CELLS 38 266
6 0 5 4 2 3 1
6 79 89 85 84 87 82
6 62 52 55 57 53 58
6 85 89 98 87 93 91
6 79 85 75 82 80 76
6 55 52 45 53 49 50
6 75 85 81 80 83 78
6 79 75 69 76 71 74
6 45 52 42 49 47 44
6 55 45 48 50 46 51
6 69 75 65 71 70 66
6 65 75 72 70 73 68
6 69 65 59 66 61 64
6 59 65 55 61 60 56
6 37 48 45 43 46 41
6 100 90 98 95 94 99
6 26 18 11 21 13 19
6 11 18 4 13 10 6
6 26 11 24 19 17 23
6 24 11 15 17 12 20
6 26 24 33 23 28 29
6 33 24 35 28 30 34
6 35 24 27 30 25 31
6 33 35 42 34 39 38
6 42 35 45 39 40 44
6 45 35 37 40 36 41
6 15 27 24 22 25 20
6 96 98 89 97 93 92
6 81 72 75 77 73 78
6 14 4 18 8 10 16
6 5 15 11 9 12 7
6 48 59 55 54 56 51
6 90 81 85 86 83 88
6 27 37 35 32 36 31
6 72 62 65 67 63 68
6 62 55 65 58 60 63
6 90 85 98 88 91 94
6 5 11 4 7 6 3

CELL_TYPES 38
22
22
22
22
22
22
22
22
22
22
22
22
22
22
22
22
22
22
22
22
22
22
22
22
22
22
22
22
22
22
22
22
22
22
22
22
22
22
POINT_DATA 101
FIELD FieldData 1
DISPLACEMENT 3 101  float
0.0000000e+00 0.0000000e+00 0.0000000e+00 
0.0000000e+00 0.0000000e+00 0.0000000e+00 
0.0000000e+00 0.0000000e+00 0.0000000e+00 
-2.0511234e-05 8.2228362e-06 0.0000000e+00 
0.0000000e+00 0.0000000e+00 0.0000000e+00 
0.0000000e+00 0.0000000e+00 0.0000000e+00 
-2.6552614e-05 2.7766091e-05 0.0000000e+00 
-7.5140335e-05 -4.1164599e-06 0.0000000e+00 
0.0000000e+00 0.0000000e+00 0.0000000e+00 
0.0000000e+00 0.0000000e+00 0.0000000e+00 
6.2972590e-06 3.3929864e-05 0.0000000e+00 
-7.5826363e-05 -4.2092797e-06 0.0000000e+00 
-1.4188509e-04 -4.4365970e-05 0.0000000e+00 
1.4820143e-05 2.5644013e-05 0.0000000e+00 
0.0000000e+00 0.0000000e+00 0.0000000e+00 
0.0000000e+00 0.0000000e+00 0.0000000e+00 
1.6949756e-05 2.9642206e-05 0.0000000e+00 
-1.5271021e-04 -9.0299167e-05 0.0000000e+00 
5.4561133e-05 3.4677698e-05 0.0000000e+00 
2.2388615e-05 -2.6563866e-05 0.0000000e+00 
-2.6336443e-04 -1.5459486e-04 0.0000000e+00 
1.3238325e-04 -1.0066583e-05 0.0000000e+00 
0.0000000e+00 0.0000000e+00 0.0000000e+00 
5.8675319e-05 -1.9466309e-04 0.0000000e+00 
-2.6982219e-04 -3.6976085e-04 0.0000000e+00 
-3.8944016e-04 -3.8312416e-04 0.0000000e+00 
2.5479021e-04 -1.0733122e-04 0.0000000e+00 
0.0000000e+00 0.0000000e+00 0.0000000e+00 
4.7299698e-05 -6.5246265e-04 0.0000000e+00 
5.5420626e-04 -4.0945353e-04 0.0000000e+00 
-4.2858030e-04 -9.6654840e-04 0.0000000e+00 
-4.7198820e-04 -7.8256772e-04 0.0000000e+00 
0.0000000e+00 0.0000000e+00 0.0000000e+00 
9.6420624e-04 -1.1327270e-03 0.0000000e+00 
-9.3353796e-05 -1.7339438e-03 0.0000000e+00 
-5.4662733e-04 -2.0364656e-03 0.0000000e+00 
-3.8126507e-04 -1.2471366e-03 0.0000000e+00 
0.0000000e+00 0.0000000e+00 0.0000000e+00 
1.2854304e-03 -2.9491351e-03 0.0000000e+00 
-3.9652918e-04 -4.2035459e-03 0.0000000e+00 
-2.9548001e-04 -3.2368761e-03 0.0000000e+00 
-4.1232401e-05 -1.4634676e-03 0.0000000e+00 
7.3407422e-04 -8.2246251e-03 0.0000000e+00 
0.0000000e+00 0.0000000e+00 0.0000000e+00 
1.9066907e-04 -5.5395481e-03 0.0000000e+00 
2.1950119e-04 -3.1704141e-03 0.0000000e+00 
2.6476895e-04 -1.2658886e-03 0.0000000e+00 
-6.7117217e-04 -6.6904495e-03 0.0000000e+00 
0.0000000e+00 0.0000000e+00 0.0000000e+00 
3.9560630e-04 -3.6153314e-03 0.0000000e+00 
4.2039773e-04 -2.0998679e-03 0.0000000e+00 
3.1742564e-04 -9.1878499e-04 0.0000000e+00 
-1.0913534e-03 -2.1611110e-03 0.0000000e+00 
-5.2921387e-05 -1.7749341e-03 0.0000000e+00 
0.0000000e+00 0.0000000e+00 0.0000000e+00 
2.7063140e-04 -1.4128822e-03 0.0000000e+00 
2.5365301e-04 -6.9679000e-04 0.0000000e+00 
-4.4953427e-04 -1.7429058e-03 0.0000000e+00 
-2.0669230e-04 -1.7892716e-03 0.0000000e+00 
0.0000000e+00 0.0000000e+00 0.0000000e+00 
2.1193108e-04 -1.1141151e-03 0.0000000e+00 
2.1420528e-04 -4.2414659e-04 0.0000000e+00 
-2.4604809e-04 -2.9253827e-03 0.0000000e+00 
6.6463697e-05 -1.6424081e-03 0.0000000e+00 
0.0000000e+00 0.0000000e+00 0.0000000e+00 
2.4894724e-04 -7.3747191e-04 0.0000000e+00 
2.1493103e-04 -2.8764523e-04 0.0000000e+00 
-4.5605795e-04 -2.1579107e-03 0.0000000e+00 
1.7152725e-04 -9.8438293e-04 0.0000000e+00 
0.0000000e+00 0.0000000e+00 0.0000000e+00 
2.7241267e-04 -4.3136696e-04 0.0000000e+00 
1.8459924e-04 -1.6699971e-04 0.0000000e+00 
-4.9563724e-04 -5.7359197e-04 0.0000000e+00 
7.1345487e-05 -3.5784775e-04 0.0000000e+00 
0.0000000e+00 0.0000000e+00 0.0000000e+00 
2.0975295e-04 -2.0204800e-04 0.0000000e+00 
1.3275306e-04 -7.9335543e-05 0.0000000e+00 
-2.9763198e-04 -2.3360600e-04 0.0000000e+00 
2.9438277e-05 -1.1762495e-04 0.0000000e+00 
0.0000000e+00 0.0000000e+00 0.0000000e+00 
1.1245576e-04 -5.1394549e-05 0.0000000e+00 
-1.4832738e-04 -5.7612284e-05 0.0000000e+00 
8.0806349e-05 -2.1375788e-05 0.0000000e+00 
9.3566359e-07 -4.9656724e-06 0.0000000e+00 
0.0000000e+00 0.0000000e+00 0.0000000e+00 
5.0401894e-05 8.5384345e-06 0.0000000e+00 
-7.2335468e-05 1.1073278e-05 0.0000000e+00 
4.1527157e-05 2.0735970e-06 0.0000000e+00 
5.3162580e-07 3.0236321e-05 0.0000000e+00 
0.0000000e+00 0.0000000e+00 0.0000000e+00 
-1.8402634e-05 3.2761534e-05 0.0000000e+00 
1.5861488e-05 1.8137156e-05 0.0000000e+00 
0.0000000e+00 0.0000000e+00 0.0000000e+00 
1.0491134e-05 4.8214170e-06 0.0000000e+00 
2.0594590e-07 1.9306102e-05 0.0000000e+00 
-1.2156931e-06 1.6983224e-05 0.0000000e+00 
0.0000000e+00 0.0000000e+00 0.0000000e+00 
0.0000000e+00 0.0000000e+00 0.0000000e+00 
0.0000000e+00 0.0000000e+00 0.0000000e+00 
0.0000000e+00 0.0000000e+00 0.0000000e+00 
0.0000000e+00 0.0000000e+00 0.0000000e+00 
CELL_DATA 38
FIELD FieldData 0
