# vtk DataFile Version 4.0
vtk output
ASCII
DATASET UNSTRUCTURED_GRID
POINTS 101 float
0.0000000e+00 0.0000000e+00 0.0000000e+00 
0.0000000e+00 2.5000000e-01 0.0000000e+00 
2.5000000e-01 0.0000000e+00 0.0000000e+00 
2.5000000e-01 2.5000000e-01 0.0000000e+00 
0.0000000e+00 5.0000000e-01 0.0000000e+00 
5.0000000e-01 0.0000000e+00 0.0000000e+00 
3.5416666e-01 5.0558227e-01 0.0000000e+00 
6.0416669e-01 2.5558227e-01 0.0000000e+00 
0.0000000e+00 7.5000000e-01 0.0000000e+00 
7.5000000e-01 0.0000000e+00 0.0000000e+00 
2.5000000e-01 7.5000000e-01 0.0000000e+00 
7.0833331e-01 5.1116455e-01 0.0000000e+00 
8.5416669e-01 2.5558227e-01 0.0000000e+00 
6.0416669e-01 7.5558227e-01 0.0000000e+00 
0.0000000e+00 1.0000000e+00 0.0000000e+00 
1.0000000e+00 0.0000000e+00 0.0000000e+00 
2.5000000e-01 1.0000000e+00 0.0000000e+00 
9.7916669e-01 5.3907591e-01 0.0000000e+00 
5.0000000e-01 1.0000000e+00 0.0000000e+00 
8.5416669e-01 7.5558227e-01 0.0000000e+00 
1.1250000e+00 2.8349364e-01 0.0000000e+00 
7.5000000e-01 1.0000000e+00 0.0000000e+00 
1.2500000e+00 0.0000000e+00 0.0000000e+00 
1.1250000e+00 7.8349364e-01 0.0000000e+00 
1.2500000e+00 5.6698728e-01 0.0000000e+00 
1.3750000e+00 2.8349364e-01 0.0000000e+00 
1.0000000e+00 1.0000000e+00 0.0000000e+00 
1.5000000e+00 0.0000000e+00 0.0000000e+00 
1.3750000e+00 7.8349364e-01 0.0000000e+00 
1.2500000e+00 1.0000000e+00 0.0000000e+00 
1.5000000e+00 5.6698728e-01 0.0000000e+00 
1.6250000e+00 2.8349364e-01 0.0000000e+00 
1.7500000e+00 0.0000000e+00 0.0000000e+00 
1.5000000e+00 1.0000000e+00 0.0000000e+00 
1.6250000e+00 7.8349364e-01 0.0000000e+00 
1.7500000e+00 5.6698728e-01 0.0000000e+00 
1.8750000e+00 2.8349364e-01 0.0000000e+00 
2.0000000e+00 0.0000000e+00 0.0000000e+00 
1.7500000e+00 1.0000000e+00 0.0000000e+00 
1.8750000e+00 7.8349364e-01 0.0000000e+00 
2.0000000e+00 5.6698728e-01 0.0000000e+00 
2.1250000e+00 2.8349364e-01 0.0000000e+00 
2.0000000e+00 1.0000000e+00 0.0000000e+00 
2.2500000e+00 0.0000000e+00 0.0000000e+00 
2.1250000e+00 7.8349364e-01 0.0000000e+00 
2.2500000e+00 5.6698728e-01 0.0000000e+00 
2.3750000e+00 2.8349364e-01 0.0000000e+00 
2.2500000e+00 1.0000000e+00 0.0000000e+00 
2.5000000e+00 0.0000000e+00 0.0000000e+00 
2.3750000e+00 7.8349364e-01 0.0000000e+00 
2.5000000e+00 5.6698728e-01 0.0000000e+00 
2.6250000e+00 2.8349364e-01 0.0000000e+00 
2.5000000e+00 1.0000000e+00 0.0000000e+00 
2.6250000e+00 7.8349364e-01 0.0000000e+00 
2.7500000e+00 0.0000000e+00 0.0000000e+00 
2.7500000e+00 5.6698728e-01 0.0000000e+00 
2.8750000e+00 2.8349364e-01 0.0000000e+00 
2.7500000e+00 1.0000000e+00 0.0000000e+00 
2.8750000e+00 7.8349364e-01 0.0000000e+00 
3.0000000e+00 0.0000000e+00 0.0000000e+00 
3.0000000e+00 5.0000000e-01 0.0000000e+00 
3.1250000e+00 2.1650635e-01 0.0000000e+00 
3.0000000e+00 1.0000000e+00 0.0000000e+00 
3.1250000e+00 7.1650636e-01 0.0000000e+00 
3.2500000e+00 0.0000000e+00 0.0000000e+00 
3.2500000e+00 4.3301269e-01 0.0000000e+00 
3.3750000e+00 2.1650635e-01 0.0000000e+00 
3.2500000e+00 1.0000000e+00 0.0000000e+00 
3.3750000e+00 7.1650636e-01 0.0000000e+00 
3.5000000e+00 0.0000000e+00 0.0000000e+00 
3.5000000e+00 4.3301269e-01 0.0000000e+00 
3.6250000e+00 2.1650635e-01 0.0000000e+00 
3.5000000e+00 1.0000000e+00 0.0000000e+00 
3.6250000e+00 7.1650636e-01 0.0000000e+00 
3.7500000e+00 0.0000000e+00 0.0000000e+00 
3.7500000e+00 4.3301269e-01 0.0000000e+00 
3.8750000e+00 2.1650635e-01 0.0000000e+00 
3.7500000e+00 1.0000000e+00 0.0000000e+00 
3.8750000e+00 7.1650636e-01 0.0000000e+00 
4.0000000e+00 0.0000000e+00 0.0000000e+00 
4.0208335e+00 4.6092409e-01 0.0000000e+00 
4.0000000e+00 1.0000000e+00 0.0000000e+00 
4.1458335e+00 2.4441773e-01 0.0000000e+00 
4.1458335e+00 7.4441773e-01 0.0000000e+00 
4.2500000e+00 0.0000000e+00 0.0000000e+00 
4.2916665e+00 4.8883545e-01 0.0000000e+00 
4.2500000e+00 1.0000000e+00 0.0000000e+00 
4.3958335e+00 2.4441773e-01 0.0000000e+00 
4.3958335e+00 7.4441773e-01 0.0000000e+00 
4.5000000e+00 0.0000000e+00 0.0000000e+00 
4.5000000e+00 1.0000000e+00 0.0000000e+00 
4.6458335e+00 4.9441773e-01 0.0000000e+00 
4.7500000e+00 0.0000000e+00 0.0000000e+00 
4.7500000e+00 2.5000000e-01 0.0000000e+00 
4.7500000e+00 7.5000000e-01 0.0000000e+00 
4.7500000e+00 1.0000000e+00 0.0000000e+00 
5.0000000e+00 0.0000000e+00 0.0000000e+00 
5.0000000e+00 2.5000000e-01 0.0000000e+00 
5.0000000e+00 5.0000000e-01 0.0000000e+00 
5.0000000e+00 7.5000000e-01 0.0000000e+00 
5.0000000e+00 1.0000000e+00 0.0000000e+00 

CELLS 38 266
6 0 5 4 2 3 1
6 79 89 85 84 87 82
6 62 52 55 57 53 58
6 85 89 98 87 93 91
6 79 85 75 82 80 76
6 55 52 45 53 49 50
6 75 85 81 80 83 78
6 79 75 69 76 71 74
6 45 52 42 49 47 44
6 55 45 48 50 46 51
6 69 75 65 71 70 66
6 65 75 72 70 73 68
6 69 65 59 66 61 64
6 59 65 55 61 60 56
6 37 48 45 43 46 41
6 100 90 98 95 94 99
6 26 18 11 21 13 19
6 11 18 4 13 10 6
6 26 11 24 19 17 23
6 24 11 15 17 12 20
6 26 24 33 23 28 29
6 33 24 35 28 30 34
6 35 24 27 30 25 31
6 33 35 42 34 39 38
6 42 35 45 39 40 44
6 45 35 37 40 36 41
6 15 27 24 22 25 20
6 96 98 89 97 93 92
6 81 72 75 77 73 78
6 14 4 18 8 10 16
6 5 15 11 9 12 7
6 48 59 55 54 56 51
6 90 81 85 86 83 88
6 27 37 35 32 36 31
6 72 62 65 67 63 68
6 62 55 65 58 60 63
6 90 85 98 88 91 94
6 5 11 4 7 6 3

CELL_TYPES 38
22
22
22
22
22
22
22
22
22
22
22
22
22
22
22
22
22
22
22
22
22
22
22
22
22
22
22
22
22
22
22
22
22
22
22
22
22
22
POINT_DATA 101
FIELD FieldData 1
DISPLACEMENT 3 101  float
0.0000000e+00 0.0000000e+00 0.0000000e+00 
0.0000000e+00 0.0000000e+00 0.0000000e+00 
0.0000000e+00 0.0000000e+00 0.0000000e+00 
-4.7927865e-06 4.2442916e-06 0.0000000e+00 
0.0000000e+00 0.0000000e+00 0.0000000e+00 
0.0000000e+00 0.0000000e+00 0.0000000e+00 
-7.6527658e-06 1.5256141e-05 0.0000000e+00 
-2.2590810e-05 1.1451463e-05 0.0000000e+00 
0.0000000e+00 0.0000000e+00 0.0000000e+00 
0.0000000e+00 0.0000000e+00 0.0000000e+00 
-3.0252866e-06 1.3027303e-05 0.0000000e+00 
-2.5488584e-05 3.2714695e-05 0.0000000e+00 
-5.1129358e-05 1.0260921e-05 0.0000000e+00 
-4.4524954e-06 3.6868489e-05 0.0000000e+00 
0.0000000e+00 0.0000000e+00 0.0000000e+00 
0.0000000e+00 0.0000000e+00 0.0000000e+00 
-8.0372320e-06 1.3425308e-05 0.0000000e+00 
-5.2503434e-05 3.4194029e-05 0.0000000e+00 
-8.4821640e-06 3.0790085e-05 0.0000000e+00 
-1.0068007e-07 4.8080503e-05 0.0000000e+00 
-1.1014776e-04 -4.4103008e-06 0.0000000e+00 
1.1624176e-05 4.3108008e-05 0.0000000e+00 
0.0000000e+00 0.0000000e+00 0.0000000e+00 
1.9957568e-05 3.9680916e-05 0.0000000e+00 
-9.4523464e-05 -7.2668320e-07 0.0000000e+00 
-1.9799969e-04 -6.5363587e-05 0.0000000e+00 
5.1441311e-05 4.3070475e-05 0.0000000e+00 
0.0000000e+00 0.0000000e+00 0.0000000e+00 
4.3155367e-05 -3.8965478e-05 0.0000000e+00 
1.5891291e-04 1.2782860e-07 0.0000000e+00 
-1.9583263e-04 -1.4664135e-04 0.0000000e+00 
-3.2109796e-04 -2.1744239e-04 0.0000000e+00 
0.0000000e+00 0.0000000e+00 0.0000000e+00 
3.3127953e-04 -1.4630788e-04 0.0000000e+00 
5.8831938e-05 -2.8564726e-04 0.0000000e+00 
-3.5903644e-04 -5.4014375e-04 0.0000000e+00 
-4.4171576e-04 -5.1402283e-04 0.0000000e+00 
0.0000000e+00 0.0000000e+00 0.0000000e+00 
7.0556614e-04 -5.7605555e-04 0.0000000e+00 
1.9092460e-05 -9.1942860e-04 0.0000000e+00 
-5.0394825e-04 -1.3383296e-03 0.0000000e+00 
-4.6702381e-04 -9.7130664e-04 0.0000000e+00 
1.2059642e-03 -1.5165625e-03 0.0000000e+00 
0.0000000e+00 0.0000000e+00 0.0000000e+00 
-2.3955690e-04 -2.4483344e-03 0.0000000e+00 
-4.8496260e-04 -2.5774350e-03 0.0000000e+00 
-2.6217423e-04 -1.3911024e-03 0.0000000e+00 
1.3058912e-03 -4.3055494e-03 0.0000000e+00 
0.0000000e+00 0.0000000e+00 0.0000000e+00 
-5.6776550e-04 -5.5473018e-03 0.0000000e+00 
-2.7478263e-05 -3.4938091e-03 0.0000000e+00 
1.3068774e-04 -1.4175428e-03 0.0000000e+00 
1.6093232e-05 -1.1066078e-02 0.0000000e+00 
6.3387566e-04 -5.4430440e-03 0.0000000e+00 
0.0000000e+00 0.0000000e+00 0.0000000e+00 
3.6967779e-04 -2.6202844e-03 0.0000000e+00 
2.9222501e-04 -1.0947287e-03 0.0000000e+00 
-1.0549849e-03 -3.9727883e-03 0.0000000e+00 
1.9389366e-04 -2.5445728e-03 0.0000000e+00 
0.0000000e+00 0.0000000e+00 0.0000000e+00 
3.2825541e-04 -1.5386364e-03 0.0000000e+00 
2.3657348e-04 -6.1779108e-04 0.0000000e+00 
-6.6585623e-04 -1.9917404e-03 0.0000000e+00 
9.9286663e-06 -1.6622071e-03 0.0000000e+00 
0.0000000e+00 0.0000000e+00 0.0000000e+00 
2.7747141e-04 -1.0764370e-03 0.0000000e+00 
2.1169370e-04 -5.0831481e-04 0.0000000e+00 
-3.1766429e-04 -2.0313992e-03 0.0000000e+00 
-1.2547411e-04 -1.8792877e-03 0.0000000e+00 
0.0000000e+00 0.0000000e+00 0.0000000e+00 
2.5138445e-04 -9.4345224e-04 0.0000000e+00 
2.2270365e-04 -3.8660559e-04 0.0000000e+00 
-3.6290154e-04 -3.6847740e-03 0.0000000e+00 
2.1483090e-04 -1.5947381e-03 0.0000000e+00 
0.0000000e+00 0.0000000e+00 0.0000000e+00 
2.6074541e-04 -6.0997019e-04 0.0000000e+00 
2.0424827e-04 -2.3541380e-04 0.0000000e+00 
-5.3866970e-04 -1.2972514e-03 0.0000000e+00 
1.4078520e-04 -6.9220184e-04 0.0000000e+00 
0.0000000e+00 0.0000000e+00 0.0000000e+00 
2.2662352e-04 -3.1011197e-04 0.0000000e+00 
-4.3586965e-04 -4.4038804e-04 0.0000000e+00 
1.6497422e-04 -1.2479156e-04 0.0000000e+00 
2.4519712e-05 -2.1601160e-04 0.0000000e+00 
0.0000000e+00 0.0000000e+00 0.0000000e+00 
1.4189658e-04 -1.0548009e-04 0.0000000e+00 
-2.4220125e-04 -1.4099217e-04 0.0000000e+00 
1.0367540e-04 -4.8101600e-05 0.0000000e+00 
4.8443844e-06 -4.3727174e-05 0.0000000e+00 
0.0000000e+00 0.0000000e+00 0.0000000e+00 
-9.8350589e-05 -1.3703923e-05 0.0000000e+00 
5.2264088e-05 -1.8057329e-06 0.0000000e+00 
0.0000000e+00 0.0000000e+00 0.0000000e+00 
3.4384717e-05 -5.1553443e-06 0.0000000e+00 
-2.6587811e-06 1.5258951e-05 0.0000000e+00 
-3.6694404e-05 8.0989803e-06 0.0000000e+00 
0.0000000e+00 0.0000000e+00 0.0000000e+00 
0.0000000e+00 0.0000000e+00 0.0000000e+00 
0.0000000e+00 0.0000000e+00 0.0000000e+00 
0.0000000e+00 0.0000000e+00 0.0000000e+00 
0.0000000e+00 0.0000000e+00 0.0000000e+00 
CELL_DATA 38
FIELD FieldData 0
