# vtk DataFile Version 4.0
vtk output
ASCII
DATASET UNSTRUCTURED_GRID
POINTS 101 float
0.0000000e+00 0.0000000e+00 0.0000000e+00 
0.0000000e+00 2.5000000e-01 0.0000000e+00 
2.5000000e-01 0.0000000e+00 0.0000000e+00 
2.5000000e-01 2.5000000e-01 0.0000000e+00 
0.0000000e+00 5.0000000e-01 0.0000000e+00 
5.0000000e-01 0.0000000e+00 0.0000000e+00 
3.5416666e-01 5.0558227e-01 0.0000000e+00 
6.0416669e-01 2.5558227e-01 0.0000000e+00 
0.0000000e+00 7.5000000e-01 0.0000000e+00 
7.5000000e-01 0.0000000e+00 0.0000000e+00 
2.5000000e-01 7.5000000e-01 0.0000000e+00 
7.0833331e-01 5.1116455e-01 0.0000000e+00 
8.5416669e-01 2.5558227e-01 0.0000000e+00 
6.0416669e-01 7.5558227e-01 0.0000000e+00 
0.0000000e+00 1.0000000e+00 0.0000000e+00 
1.0000000e+00 0.0000000e+00 0.0000000e+00 
2.5000000e-01 1.0000000e+00 0.0000000e+00 
9.7916669e-01 5.3907591e-01 0.0000000e+00 
5.0000000e-01 1.0000000e+00 0.0000000e+00 
8.5416669e-01 7.5558227e-01 0.0000000e+00 
1.1250000e+00 2.8349364e-01 0.0000000e+00 
7.5000000e-01 1.0000000e+00 0.0000000e+00 
1.2500000e+00 0.0000000e+00 0.0000000e+00 
1.1250000e+00 7.8349364e-01 0.0000000e+00 
1.2500000e+00 5.6698728e-01 0.0000000e+00 
1.3750000e+00 2.8349364e-01 0.0000000e+00 
1.0000000e+00 1.0000000e+00 0.0000000e+00 
1.5000000e+00 0.0000000e+00 0.0000000e+00 
1.3750000e+00 7.8349364e-01 0.0000000e+00 
1.2500000e+00 1.0000000e+00 0.0000000e+00 
1.5000000e+00 5.6698728e-01 0.0000000e+00 
1.6250000e+00 2.8349364e-01 0.0000000e+00 
1.7500000e+00 0.0000000e+00 0.0000000e+00 
1.5000000e+00 1.0000000e+00 0.0000000e+00 
1.6250000e+00 7.8349364e-01 0.0000000e+00 
1.7500000e+00 5.6698728e-01 0.0000000e+00 
1.8750000e+00 2.8349364e-01 0.0000000e+00 
2.0000000e+00 0.0000000e+00 0.0000000e+00 
1.7500000e+00 1.0000000e+00 0.0000000e+00 
1.8750000e+00 7.8349364e-01 0.0000000e+00 
2.0000000e+00 5.6698728e-01 0.0000000e+00 
2.1250000e+00 2.8349364e-01 0.0000000e+00 
2.0000000e+00 1.0000000e+00 0.0000000e+00 
2.2500000e+00 0.0000000e+00 0.0000000e+00 
2.1250000e+00 7.8349364e-01 0.0000000e+00 
2.2500000e+00 5.6698728e-01 0.0000000e+00 
2.3750000e+00 2.8349364e-01 0.0000000e+00 
2.2500000e+00 1.0000000e+00 0.0000000e+00 
2.5000000e+00 0.0000000e+00 0.0000000e+00 
2.3750000e+00 7.8349364e-01 0.0000000e+00 
2.5000000e+00 5.6698728e-01 0.0000000e+00 
2.6250000e+00 2.8349364e-01 0.0000000e+00 
2.5000000e+00 1.0000000e+00 0.0000000e+00 
2.6250000e+00 7.8349364e-01 0.0000000e+00 
2.7500000e+00 0.0000000e+00 0.0000000e+00 
2.7500000e+00 5.6698728e-01 0.0000000e+00 
2.8750000e+00 2.8349364e-01 0.0000000e+00 
2.7500000e+00 1.0000000e+00 0.0000000e+00 
2.8750000e+00 7.8349364e-01 0.0000000e+00 
3.0000000e+00 0.0000000e+00 0.0000000e+00 
3.0000000e+00 5.0000000e-01 0.0000000e+00 
3.1250000e+00 2.1650635e-01 0.0000000e+00 
3.0000000e+00 1.0000000e+00 0.0000000e+00 
3.1250000e+00 7.1650636e-01 0.0000000e+00 
3.2500000e+00 0.0000000e+00 0.0000000e+00 
3.2500000e+00 4.3301269e-01 0.0000000e+00 
3.3750000e+00 2.1650635e-01 0.0000000e+00 
3.2500000e+00 1.0000000e+00 0.0000000e+00 
3.3750000e+00 7.1650636e-01 0.0000000e+00 
3.5000000e+00 0.0000000e+00 0.0000000e+00 
3.5000000e+00 4.3301269e-01 0.0000000e+00 
3.6250000e+00 2.1650635e-01 0.0000000e+00 
3.5000000e+00 1.0000000e+00 0.0000000e+00 
3.6250000e+00 7.1650636e-01 0.0000000e+00 
3.7500000e+00 0.0000000e+00 0.0000000e+00 
3.7500000e+00 4.3301269e-01 0.0000000e+00 
3.8750000e+00 2.1650635e-01 0.0000000e+00 
3.7500000e+00 1.0000000e+00 0.0000000e+00 
3.8750000e+00 7.1650636e-01 0.0000000e+00 
4.0000000e+00 0.0000000e+00 0.0000000e+00 
4.0208335e+00 4.6092409e-01 0.0000000e+00 
4.0000000e+00 1.0000000e+00 0.0000000e+00 
4.1458335e+00 2.4441773e-01 0.0000000e+00 
4.1458335e+00 7.4441773e-01 0.0000000e+00 
4.2500000e+00 0.0000000e+00 0.0000000e+00 
4.2916665e+00 4.8883545e-01 0.0000000e+00 
4.2500000e+00 1.0000000e+00 0.0000000e+00 
4.3958335e+00 2.4441773e-01 0.0000000e+00 
4.3958335e+00 7.4441773e-01 0.0000000e+00 
4.5000000e+00 0.0000000e+00 0.0000000e+00 
4.5000000e+00 1.0000000e+00 0.0000000e+00 
4.6458335e+00 4.9441773e-01 0.0000000e+00 
4.7500000e+00 0.0000000e+00 0.0000000e+00 
4.7500000e+00 2.5000000e-01 0.0000000e+00 
4.7500000e+00 7.5000000e-01 0.0000000e+00 
4.7500000e+00 1.0000000e+00 0.0000000e+00 
5.0000000e+00 0.0000000e+00 0.0000000e+00 
5.0000000e+00 2.5000000e-01 0.0000000e+00 
5.0000000e+00 5.0000000e-01 0.0000000e+00 
5.0000000e+00 7.5000000e-01 0.0000000e+00 
5.0000000e+00 1.0000000e+00 0.0000000e+00 

CELLS 38 266
6 0 5 4 2 3 1
6 79 89 85 84 87 82
6 62 52 55 57 53 58
6 85 89 98 87 93 91
6 79 85 75 82 80 76
6 55 52 45 53 49 50
6 75 85 81 80 83 78
6 79 75 69 76 71 74
6 45 52 42 49 47 44
6 55 45 48 50 46 51
6 69 75 65 71 70 66
6 65 75 72 70 73 68
6 69 65 59 66 61 64
6 59 65 55 61 60 56
6 37 48 45 43 46 41
6 100 90 98 95 94 99
6 26 18 11 21 13 19
6 11 18 4 13 10 6
6 26 11 24 19 17 23
6 24 11 15 17 12 20
6 26 24 33 23 28 29
6 33 24 35 28 30 34
6 35 24 27 30 25 31
6 33 35 42 34 39 38
6 42 35 45 39 40 44
6 45 35 37 40 36 41
6 15 27 24 22 25 20
6 96 98 89 97 93 92
6 81 72 75 77 73 78
6 14 4 18 8 10 16
6 5 15 11 9 12 7
6 48 59 55 54 56 51
6 90 81 85 86 83 88
6 27 37 35 32 36 31
6 72 62 65 67 63 68
6 62 55 65 58 60 63
6 90 85 98 88 91 94
6 5 11 4 7 6 3

CELL_TYPES 38
22
22
22
22
22
22
22
22
22
22
22
22
22
22
22
22
22
22
22
22
22
22
22
22
22
22
22
22
22
22
22
22
22
22
22
22
22
22
POINT_DATA 101
FIELD FieldData 1
DISPLACEMENT 3 101  float
0.0000000e+00 0.0000000e+00 0.0000000e+00 
0.0000000e+00 0.0000000e+00 0.0000000e+00 
0.0000000e+00 0.0000000e+00 0.0000000e+00 
-3.3342562e-06 2.2193260e-06 0.0000000e+00 
0.0000000e+00 0.0000000e+00 0.0000000e+00 
0.0000000e+00 0.0000000e+00 0.0000000e+00 
-5.7057428e-06 8.0020227e-06 0.0000000e+00 
-1.1960156e-05 6.6688181e-06 0.0000000e+00 
0.0000000e+00 0.0000000e+00 0.0000000e+00 
0.0000000e+00 0.0000000e+00 0.0000000e+00 
-2.8141294e-06 7.4262998e-06 0.0000000e+00 
-1.3663938e-05 1.9171188e-05 0.0000000e+00 
-2.6646401e-05 9.1367301e-06 0.0000000e+00 
-4.7615163e-06 1.9703049e-05 0.0000000e+00 
0.0000000e+00 0.0000000e+00 0.0000000e+00 
0.0000000e+00 0.0000000e+00 0.0000000e+00 
-5.2377973e-06 7.9784077e-06 0.0000000e+00 
-2.7117994e-05 3.1017269e-05 0.0000000e+00 
-6.8983709e-06 1.6851411e-05 0.0000000e+00 
-2.9638966e-06 3.2188535e-05 0.0000000e+00 
-6.2231324e-05 9.2033824e-06 0.0000000e+00 
-2.4408653e-06 2.6276344e-05 0.0000000e+00 
0.0000000e+00 0.0000000e+00 0.0000000e+00 
8.4762323e-06 4.7646161e-05 0.0000000e+00 
-5.1659430e-05 3.3346529e-05 0.0000000e+00 
-1.2264945e-04 -1.4936601e-05 0.0000000e+00 
1.3084507e-05 3.8294216e-05 0.0000000e+00 
0.0000000e+00 0.0000000e+00 0.0000000e+00 
2.7259239e-05 2.6185582e-05 0.0000000e+00 
7.5854950e-05 3.6420020e-05 0.0000000e+00 
-1.1174740e-04 -2.7615821e-05 0.0000000e+00 
-2.1747725e-04 -8.9492984e-05 0.0000000e+00 
0.0000000e+00 0.0000000e+00 0.0000000e+00 
1.8433336e-04 -2.5318552e-05 0.0000000e+00 
5.1091840e-05 -8.3382736e-05 0.0000000e+00 
-2.1065774e-04 -2.1278906e-04 0.0000000e+00 
-3.4355311e-04 -2.6417378e-04 0.0000000e+00 
0.0000000e+00 0.0000000e+00 0.0000000e+00 
4.2382209e-04 -2.3530885e-04 0.0000000e+00 
6.1455663e-05 -4.0154179e-04 0.0000000e+00 
-3.7209550e-04 -6.5219041e-04 0.0000000e+00 
-4.6380874e-04 -5.9995393e-04 0.0000000e+00 
7.6126371e-04 -7.4528792e-04 0.0000000e+00 
0.0000000e+00 0.0000000e+00 0.0000000e+00 
-1.0137214e-06 -1.1752137e-03 0.0000000e+00 
-5.6333141e-04 -1.5481955e-03 0.0000000e+00 
-4.6202948e-04 -1.0697858e-03 0.0000000e+00 
1.1747087e-03 -2.0204857e-03 0.0000000e+00 
0.0000000e+00 0.0000000e+00 0.0000000e+00 
-1.9467462e-04 -2.9328316e-03 0.0000000e+00 
-4.8417269e-04 -2.8341394e-03 0.0000000e+00 
-2.0440496e-04 -1.4329456e-03 0.0000000e+00 
1.2191248e-03 -5.2805445e-03 0.0000000e+00 
-1.8089435e-04 -5.1606880e-03 0.0000000e+00 
0.0000000e+00 0.0000000e+00 0.0000000e+00 
4.1897634e-05 -3.4559125e-03 0.0000000e+00 
1.7886980e-04 -1.3927527e-03 0.0000000e+00 
-1.5471470e-04 -8.2249008e-03 0.0000000e+00 
4.0589322e-04 -4.4992953e-03 0.0000000e+00 
0.0000000e+00 0.0000000e+00 0.0000000e+00 
4.1011680e-04 -2.2158648e-03 0.0000000e+00 
2.5895049e-04 -8.1350736e-04 0.0000000e+00 
-1.1101529e-03 -3.1212596e-03 0.0000000e+00 
2.1335503e-04 -2.1847733e-03 0.0000000e+00 
0.0000000e+00 0.0000000e+00 0.0000000e+00 
3.8222765e-04 -1.3412907e-03 0.0000000e+00 
2.4620938e-04 -6.1369967e-04 0.0000000e+00 
-6.5173133e-04 -1.9504386e-03 0.0000000e+00 
-1.3024987e-05 -1.6070771e-03 0.0000000e+00 
0.0000000e+00 0.0000000e+00 0.0000000e+00 
2.3009631e-04 -1.0264337e-03 0.0000000e+00 
2.1018028e-04 -4.7430658e-04 0.0000000e+00 
-2.6716714e-04 -2.1879985e-03 0.0000000e+00 
-3.4690311e-05 -1.6769140e-03 0.0000000e+00 
0.0000000e+00 0.0000000e+00 0.0000000e+00 
2.4450134e-04 -8.7775604e-04 0.0000000e+00 
2.1886392e-04 -3.5369099e-04 0.0000000e+00 
-4.1476762e-04 -2.7257770e-03 0.0000000e+00 
1.5773851e-04 -1.2736940e-03 0.0000000e+00 
0.0000000e+00 0.0000000e+00 0.0000000e+00 
2.8702780e-04 -5.7117501e-04 0.0000000e+00 
-5.5216870e-04 -9.7261358e-04 0.0000000e+00 
2.1375692e-04 -2.3169635e-04 0.0000000e+00 
3.9686478e-05 -5.1082025e-04 0.0000000e+00 
0.0000000e+00 0.0000000e+00 0.0000000e+00 
2.0511265e-04 -2.4544119e-04 0.0000000e+00 
-3.6931649e-04 -3.7095783e-04 0.0000000e+00 
1.4942064e-04 -1.0617736e-04 0.0000000e+00 
7.0754122e-06 -1.6734291e-04 0.0000000e+00 
0.0000000e+00 0.0000000e+00 0.0000000e+00 
-1.9022477e-04 -1.0204757e-04 0.0000000e+00 
8.4411797e-05 -3.7487946e-05 0.0000000e+00 
0.0000000e+00 0.0000000e+00 0.0000000e+00 
5.5458404e-05 -1.9990295e-05 0.0000000e+00 
-7.0727383e-06 -2.5834729e-06 0.0000000e+00 
-8.1990358e-05 -1.6570229e-05 0.0000000e+00 
0.0000000e+00 0.0000000e+00 0.0000000e+00 
0.0000000e+00 0.0000000e+00 0.0000000e+00 
0.0000000e+00 0.0000000e+00 0.0000000e+00 
0.0000000e+00 0.0000000e+00 0.0000000e+00 
0.0000000e+00 0.0000000e+00 0.0000000e+00 
CELL_DATA 38
FIELD FieldData 0
