# vtk DataFile Version 4.0
vtk output
ASCII
DATASET UNSTRUCTURED_GRID
POINTS 101 float
0.0000000e+00 0.0000000e+00 0.0000000e+00 
0.0000000e+00 2.5000000e-01 0.0000000e+00 
2.5000000e-01 0.0000000e+00 0.0000000e+00 
2.5000000e-01 2.5000000e-01 0.0000000e+00 
0.0000000e+00 5.0000000e-01 0.0000000e+00 
5.0000000e-01 0.0000000e+00 0.0000000e+00 
3.5416666e-01 5.0558227e-01 0.0000000e+00 
6.0416669e-01 2.5558227e-01 0.0000000e+00 
0.0000000e+00 7.5000000e-01 0.0000000e+00 
7.5000000e-01 0.0000000e+00 0.0000000e+00 
2.5000000e-01 7.5000000e-01 0.0000000e+00 
7.0833331e-01 5.1116455e-01 0.0000000e+00 
8.5416669e-01 2.5558227e-01 0.0000000e+00 
6.0416669e-01 7.5558227e-01 0.0000000e+00 
0.0000000e+00 1.0000000e+00 0.0000000e+00 
1.0000000e+00 0.0000000e+00 0.0000000e+00 
2.5000000e-01 1.0000000e+00 0.0000000e+00 
9.7916669e-01 5.3907591e-01 0.0000000e+00 
5.0000000e-01 1.0000000e+00 0.0000000e+00 
8.5416669e-01 7.5558227e-01 0.0000000e+00 
1.1250000e+00 2.8349364e-01 0.0000000e+00 
7.5000000e-01 1.0000000e+00 0.0000000e+00 
1.2500000e+00 0.0000000e+00 0.0000000e+00 
1.1250000e+00 7.8349364e-01 0.0000000e+00 
1.2500000e+00 5.6698728e-01 0.0000000e+00 
1.3750000e+00 2.8349364e-01 0.0000000e+00 
1.0000000e+00 1.0000000e+00 0.0000000e+00 
1.5000000e+00 0.0000000e+00 0.0000000e+00 
1.3750000e+00 7.8349364e-01 0.0000000e+00 
1.2500000e+00 1.0000000e+00 0.0000000e+00 
1.5000000e+00 5.6698728e-01 0.0000000e+00 
1.6250000e+00 2.8349364e-01 0.0000000e+00 
1.7500000e+00 0.0000000e+00 0.0000000e+00 
1.5000000e+00 1.0000000e+00 0.0000000e+00 
1.6250000e+00 7.8349364e-01 0.0000000e+00 
1.7500000e+00 5.6698728e-01 0.0000000e+00 
1.8750000e+00 2.8349364e-01 0.0000000e+00 
2.0000000e+00 0.0000000e+00 0.0000000e+00 
1.7500000e+00 1.0000000e+00 0.0000000e+00 
1.8750000e+00 7.8349364e-01 0.0000000e+00 
2.0000000e+00 5.6698728e-01 0.0000000e+00 
2.1250000e+00 2.8349364e-01 0.0000000e+00 
2.0000000e+00 1.0000000e+00 0.0000000e+00 
2.2500000e+00 0.0000000e+00 0.0000000e+00 
2.1250000e+00 7.8349364e-01 0.0000000e+00 
2.2500000e+00 5.6698728e-01 0.0000000e+00 
2.3750000e+00 2.8349364e-01 0.0000000e+00 
2.2500000e+00 1.0000000e+00 0.0000000e+00 
2.5000000e+00 0.0000000e+00 0.0000000e+00 
2.3750000e+00 7.8349364e-01 0.0000000e+00 
2.5000000e+00 5.6698728e-01 0.0000000e+00 
2.6250000e+00 2.8349364e-01 0.0000000e+00 
2.5000000e+00 1.0000000e+00 0.0000000e+00 
2.6250000e+00 7.8349364e-01 0.0000000e+00 
2.7500000e+00 0.0000000e+00 0.0000000e+00 
2.7500000e+00 5.6698728e-01 0.0000000e+00 
2.8750000e+00 2.8349364e-01 0.0000000e+00 
2.7500000e+00 1.0000000e+00 0.0000000e+00 
2.8750000e+00 7.8349364e-01 0.0000000e+00 
3.0000000e+00 0.0000000e+00 0.0000000e+00 
3.0000000e+00 5.0000000e-01 0.0000000e+00 
3.1250000e+00 2.1650635e-01 0.0000000e+00 
3.0000000e+00 1.0000000e+00 0.0000000e+00 
3.1250000e+00 7.1650636e-01 0.0000000e+00 
3.2500000e+00 0.0000000e+00 0.0000000e+00 
3.2500000e+00 4.3301269e-01 0.0000000e+00 
3.3750000e+00 2.1650635e-01 0.0000000e+00 
3.2500000e+00 1.0000000e+00 0.0000000e+00 
3.3750000e+00 7.1650636e-01 0.0000000e+00 
3.5000000e+00 0.0000000e+00 0.0000000e+00 
3.5000000e+00 4.3301269e-01 0.0000000e+00 
3.6250000e+00 2.1650635e-01 0.0000000e+00 
3.5000000e+00 1.0000000e+00 0.0000000e+00 
3.6250000e+00 7.1650636e-01 0.0000000e+00 
3.7500000e+00 0.0000000e+00 0.0000000e+00 
3.7500000e+00 4.3301269e-01 0.0000000e+00 
3.8750000e+00 2.1650635e-01 0.0000000e+00 
3.7500000e+00 1.0000000e+00 0.0000000e+00 
3.8750000e+00 7.1650636e-01 0.0000000e+00 
4.0000000e+00 0.0000000e+00 0.0000000e+00 
4.0208335e+00 4.6092409e-01 0.0000000e+00 
4.0000000e+00 1.0000000e+00 0.0000000e+00 
4.1458335e+00 2.4441773e-01 0.0000000e+00 
4.1458335e+00 7.4441773e-01 0.0000000e+00 
4.2500000e+00 0.0000000e+00 0.0000000e+00 
4.2916665e+00 4.8883545e-01 0.0000000e+00 
4.2500000e+00 1.0000000e+00 0.0000000e+00 
4.3958335e+00 2.4441773e-01 0.0000000e+00 
4.3958335e+00 7.4441773e-01 0.0000000e+00 
4.5000000e+00 0.0000000e+00 0.0000000e+00 
4.5000000e+00 1.0000000e+00 0.0000000e+00 
4.6458335e+00 4.9441773e-01 0.0000000e+00 
4.7500000e+00 0.0000000e+00 0.0000000e+00 
4.7500000e+00 2.5000000e-01 0.0000000e+00 
4.7500000e+00 7.5000000e-01 0.0000000e+00 
4.7500000e+00 1.0000000e+00 0.0000000e+00 
5.0000000e+00 0.0000000e+00 0.0000000e+00 
5.0000000e+00 2.5000000e-01 0.0000000e+00 
5.0000000e+00 5.0000000e-01 0.0000000e+00 
5.0000000e+00 7.5000000e-01 0.0000000e+00 
5.0000000e+00 1.0000000e+00 0.0000000e+00 

CELLS 38 266
6 0 5 4 2 3 1
6 79 89 85 84 87 82
6 62 52 55 57 53 58
6 85 89 98 87 93 91
6 79 85 75 82 80 76
6 55 52 45 53 49 50
6 75 85 81 80 83 78
6 79 75 69 76 71 74
6 45 52 42 49 47 44
6 55 45 48 50 46 51
6 69 75 65 71 70 66
6 65 75 72 70 73 68
6 69 65 59 66 61 64
6 59 65 55 61 60 56
6 37 48 45 43 46 41
6 100 90 98 95 94 99
6 26 18 11 21 13 19
6 11 18 4 13 10 6
6 26 11 24 19 17 23
6 24 11 15 17 12 20
6 26 24 33 23 28 29
6 33 24 35 28 30 34
6 35 24 27 30 25 31
6 33 35 42 34 39 38
6 42 35 45 39 40 44
6 45 35 37 40 36 41
6 15 27 24 22 25 20
6 96 98 89 97 93 92
6 81 72 75 77 73 78
6 14 4 18 8 10 16
6 5 15 11 9 12 7
6 48 59 55 54 56 51
6 90 81 85 86 83 88
6 27 37 35 32 36 31
6 72 62 65 67 63 68
6 62 55 65 58 60 63
6 90 85 98 88 91 94
6 5 11 4 7 6 3

CELL_TYPES 38
22
22
22
22
22
22
22
22
22
22
22
22
22
22
22
22
22
22
22
22
22
22
22
22
22
22
22
22
22
22
22
22
22
22
22
22
22
22
POINT_DATA 101
FIELD FieldData 1
DISPLACEMENT 3 101  float
0.0000000e+00 0.0000000e+00 0.0000000e+00 
0.0000000e+00 0.0000000e+00 0.0000000e+00 
0.0000000e+00 0.0000000e+00 0.0000000e+00 
-2.1145419e-05 -3.1824868e-05 0.0000000e+00 
0.0000000e+00 0.0000000e+00 0.0000000e+00 
0.0000000e+00 0.0000000e+00 0.0000000e+00 
-8.7482847e-05 -1.0207334e-04 0.0000000e+00 
-3.1853269e-05 -1.0365983e-04 0.0000000e+00 
0.0000000e+00 0.0000000e+00 0.0000000e+00 
0.0000000e+00 0.0000000e+00 0.0000000e+00 
-6.5824133e-05 -3.3899931e-05 0.0000000e+00 
-4.3047843e-05 -4.0784755e-04 0.0000000e+00 
1.5316638e-05 -8.4041043e-05 0.0000000e+00 
-2.3121311e-04 -8.0250989e-04 0.0000000e+00 
0.0000000e+00 0.0000000e+00 0.0000000e+00 
0.0000000e+00 0.0000000e+00 0.0000000e+00 
1.7685803e-04 -9.2715549e-05 0.0000000e+00 
1.0915678e-04 -2.4827538e-04 0.0000000e+00 
2.9221247e-04 -8.8846713e-04 0.0000000e+00 
2.9226384e-04 -8.6808024e-04 0.0000000e+00 
3.0246607e-05 -6.2922816e-05 0.0000000e+00 
-1.0130301e-04 -3.7646769e-03 0.0000000e+00 
0.0000000e+00 0.0000000e+00 0.0000000e+00 
5.7360860e-05 -6.8135370e-05 0.0000000e+00 
4.3411346e-05 -8.4292478e-05 0.0000000e+00 
8.9085715e-06 -3.7593963e-05 0.0000000e+00 
-3.0205955e-04 -3.3804349e-04 0.0000000e+00 
0.0000000e+00 0.0000000e+00 0.0000000e+00 
-2.9583913e-05 -6.5091874e-05 0.0000000e+00 
-4.8598111e-05 -2.0538808e-05 0.0000000e+00 
-1.8604122e-05 -9.9848206e-05 0.0000000e+00 
-1.0798176e-08 -3.8963335e-05 0.0000000e+00 
0.0000000e+00 0.0000000e+00 0.0000000e+00 
1.1947000e-04 -2.8874876e-04 0.0000000e+00 
-8.1673083e-05 -3.4792969e-04 0.0000000e+00 
5.2571722e-06 -1.7138371e-04 0.0000000e+00 
1.3681602e-05 -3.4022360e-05 0.0000000e+00 
0.0000000e+00 0.0000000e+00 0.0000000e+00 
-1.3937818e-05 -1.2827748e-03 0.0000000e+00 
1.0913957e-04 -3.0349978e-04 0.0000000e+00 
4.1817406e-05 -8.1439852e-05 0.0000000e+00 
1.3630819e-05 -1.8423378e-05 0.0000000e+00 
-1.2391245e-04 -8.7558743e-05 0.0000000e+00 
0.0000000e+00 0.0000000e+00 0.0000000e+00 
2.3719813e-05 -1.7948960e-05 0.0000000e+00 
2.3982582e-05 -2.0929361e-05 0.0000000e+00 
7.9013489e-06 -5.9354497e-06 0.0000000e+00 
-3.7968937e-05 1.5034146e-06 0.0000000e+00 
0.0000000e+00 0.0000000e+00 0.0000000e+00 
2.9747966e-06 2.2400823e-06 0.0000000e+00 
7.1873719e-06 -5.8457061e-07 0.0000000e+00 
3.0282847e-06 -1.2304720e-06 0.0000000e+00 
8.0597552e-08 1.9583804e-06 0.0000000e+00 
1.2715374e-06 8.5923091e-07 0.0000000e+00 
0.0000000e+00 0.0000000e+00 0.0000000e+00 
1.3103953e-06 -2.6387452e-08 0.0000000e+00 
1.0678646e-06 -1.3604097e-07 0.0000000e+00 
4.9091096e-07 5.9013240e-07 0.0000000e+00 
4.7892394e-07 2.5031855e-07 0.0000000e+00 
0.0000000e+00 0.0000000e+00 0.0000000e+00 
5.1922319e-07 6.5100721e-08 0.0000000e+00 
3.2077187e-07 -3.3313555e-08 0.0000000e+00 
4.2612058e-07 2.0569088e-07 0.0000000e+00 
2.1589408e-07 7.3643569e-08 0.0000000e+00 
0.0000000e+00 0.0000000e+00 0.0000000e+00 
2.1000560e-07 3.8458200e-08 0.0000000e+00 
1.0056203e-07 -5.8832268e-09 0.0000000e+00 
1.8583366e-07 6.1084762e-08 0.0000000e+00 
9.1512362e-08 2.5166319e-08 0.0000000e+00 
0.0000000e+00 0.0000000e+00 0.0000000e+00 
7.5469217e-08 5.1233804e-09 0.0000000e+00 
3.3862229e-08 -3.7474135e-09 0.0000000e+00 
7.8863053e-08 1.9128761e-08 0.0000000e+00 
3.7545512e-08 6.6555077e-09 0.0000000e+00 
0.0000000e+00 0.0000000e+00 0.0000000e+00 
2.5303549e-08 3.1109242e-09 0.0000000e+00 
1.0963366e-08 -1.1093277e-09 0.0000000e+00 
3.2194372e-08 7.3169324e-09 0.0000000e+00 
1.5220884e-08 1.6997681e-09 0.0000000e+00 
0.0000000e+00 0.0000000e+00 0.0000000e+00 
8.6658085e-09 -1.3865981e-10 0.0000000e+00 
1.2494434e-08 2.5285358e-09 0.0000000e+00 
3.8833492e-09 -6.0698652e-10 0.0000000e+00 
5.5987450e-09 3.8232140e-10 0.0000000e+00 
0.0000000e+00 0.0000000e+00 0.0000000e+00 
2.9692560e-09 8.8919476e-11 0.0000000e+00 
4.9189106e-09 9.3059166e-10 0.0000000e+00 
1.3658390e-09 -2.2364346e-10 0.0000000e+00 
2.2017765e-09 1.1111929e-10 0.0000000e+00 
0.0000000e+00 0.0000000e+00 0.0000000e+00 
1.7651276e-09 3.1803843e-10 0.0000000e+00 
6.3186806e-10 -9.0943912e-11 0.0000000e+00 
0.0000000e+00 0.0000000e+00 0.0000000e+00 
2.9480177e-10 -8.4433759e-11 0.0000000e+00 
4.6333973e-10 5.2980506e-12 0.0000000e+00 
6.3913963e-10 1.4566739e-10 0.0000000e+00 
0.0000000e+00 0.0000000e+00 0.0000000e+00 
0.0000000e+00 0.0000000e+00 0.0000000e+00 
0.0000000e+00 0.0000000e+00 0.0000000e+00 
0.0000000e+00 0.0000000e+00 0.0000000e+00 
0.0000000e+00 0.0000000e+00 0.0000000e+00 
CELL_DATA 38
FIELD FieldData 0
