# vtk DataFile Version 4.0
vtk output
ASCII
DATASET UNSTRUCTURED_GRID
POINTS 101 float
0.0000000e+00 0.0000000e+00 0.0000000e+00 
0.0000000e+00 2.5000000e-01 0.0000000e+00 
2.5000000e-01 0.0000000e+00 0.0000000e+00 
2.5000000e-01 2.5000000e-01 0.0000000e+00 
0.0000000e+00 5.0000000e-01 0.0000000e+00 
5.0000000e-01 0.0000000e+00 0.0000000e+00 
3.5416666e-01 5.0558227e-01 0.0000000e+00 
6.0416669e-01 2.5558227e-01 0.0000000e+00 
0.0000000e+00 7.5000000e-01 0.0000000e+00 
7.5000000e-01 0.0000000e+00 0.0000000e+00 
2.5000000e-01 7.5000000e-01 0.0000000e+00 
7.0833331e-01 5.1116455e-01 0.0000000e+00 
8.5416669e-01 2.5558227e-01 0.0000000e+00 
6.0416669e-01 7.5558227e-01 0.0000000e+00 
0.0000000e+00 1.0000000e+00 0.0000000e+00 
1.0000000e+00 0.0000000e+00 0.0000000e+00 
2.5000000e-01 1.0000000e+00 0.0000000e+00 
9.7916669e-01 5.3907591e-01 0.0000000e+00 
5.0000000e-01 1.0000000e+00 0.0000000e+00 
8.5416669e-01 7.5558227e-01 0.0000000e+00 
1.1250000e+00 2.8349364e-01 0.0000000e+00 
7.5000000e-01 1.0000000e+00 0.0000000e+00 
1.2500000e+00 0.0000000e+00 0.0000000e+00 
1.1250000e+00 7.8349364e-01 0.0000000e+00 
1.2500000e+00 5.6698728e-01 0.0000000e+00 
1.3750000e+00 2.8349364e-01 0.0000000e+00 
1.0000000e+00 1.0000000e+00 0.0000000e+00 
1.5000000e+00 0.0000000e+00 0.0000000e+00 
1.3750000e+00 7.8349364e-01 0.0000000e+00 
1.2500000e+00 1.0000000e+00 0.0000000e+00 
1.5000000e+00 5.6698728e-01 0.0000000e+00 
1.6250000e+00 2.8349364e-01 0.0000000e+00 
1.7500000e+00 0.0000000e+00 0.0000000e+00 
1.5000000e+00 1.0000000e+00 0.0000000e+00 
1.6250000e+00 7.8349364e-01 0.0000000e+00 
1.7500000e+00 5.6698728e-01 0.0000000e+00 
1.8750000e+00 2.8349364e-01 0.0000000e+00 
2.0000000e+00 0.0000000e+00 0.0000000e+00 
1.7500000e+00 1.0000000e+00 0.0000000e+00 
1.8750000e+00 7.8349364e-01 0.0000000e+00 
2.0000000e+00 5.6698728e-01 0.0000000e+00 
2.1250000e+00 2.8349364e-01 0.0000000e+00 
2.0000000e+00 1.0000000e+00 0.0000000e+00 
2.2500000e+00 0.0000000e+00 0.0000000e+00 
2.1250000e+00 7.8349364e-01 0.0000000e+00 
2.2500000e+00 5.6698728e-01 0.0000000e+00 
2.3750000e+00 2.8349364e-01 0.0000000e+00 
2.2500000e+00 1.0000000e+00 0.0000000e+00 
2.5000000e+00 0.0000000e+00 0.0000000e+00 
2.3750000e+00 7.8349364e-01 0.0000000e+00 
2.5000000e+00 5.6698728e-01 0.0000000e+00 
2.6250000e+00 2.8349364e-01 0.0000000e+00 
2.5000000e+00 1.0000000e+00 0.0000000e+00 
2.6250000e+00 7.8349364e-01 0.0000000e+00 
2.7500000e+00 0.0000000e+00 0.0000000e+00 
2.7500000e+00 5.6698728e-01 0.0000000e+00 
2.8750000e+00 2.8349364e-01 0.0000000e+00 
2.7500000e+00 1.0000000e+00 0.0000000e+00 
2.8750000e+00 7.8349364e-01 0.0000000e+00 
3.0000000e+00 0.0000000e+00 0.0000000e+00 
3.0000000e+00 5.0000000e-01 0.0000000e+00 
3.1250000e+00 2.1650635e-01 0.0000000e+00 
3.0000000e+00 1.0000000e+00 0.0000000e+00 
3.1250000e+00 7.1650636e-01 0.0000000e+00 
3.2500000e+00 0.0000000e+00 0.0000000e+00 
3.2500000e+00 4.3301269e-01 0.0000000e+00 
3.3750000e+00 2.1650635e-01 0.0000000e+00 
3.2500000e+00 1.0000000e+00 0.0000000e+00 
3.3750000e+00 7.1650636e-01 0.0000000e+00 
3.5000000e+00 0.0000000e+00 0.0000000e+00 
3.5000000e+00 4.3301269e-01 0.0000000e+00 
3.6250000e+00 2.1650635e-01 0.0000000e+00 
3.5000000e+00 1.0000000e+00 0.0000000e+00 
3.6250000e+00 7.1650636e-01 0.0000000e+00 
3.7500000e+00 0.0000000e+00 0.0000000e+00 
3.7500000e+00 4.3301269e-01 0.0000000e+00 
3.8750000e+00 2.1650635e-01 0.0000000e+00 
3.7500000e+00 1.0000000e+00 0.0000000e+00 
3.8750000e+00 7.1650636e-01 0.0000000e+00 
4.0000000e+00 0.0000000e+00 0.0000000e+00 
4.0208335e+00 4.6092409e-01 0.0000000e+00 
4.0000000e+00 1.0000000e+00 0.0000000e+00 
4.1458335e+00 2.4441773e-01 0.0000000e+00 
4.1458335e+00 7.4441773e-01 0.0000000e+00 
4.2500000e+00 0.0000000e+00 0.0000000e+00 
4.2916665e+00 4.8883545e-01 0.0000000e+00 
4.2500000e+00 1.0000000e+00 0.0000000e+00 
4.3958335e+00 2.4441773e-01 0.0000000e+00 
4.3958335e+00 7.4441773e-01 0.0000000e+00 
4.5000000e+00 0.0000000e+00 0.0000000e+00 
4.5000000e+00 1.0000000e+00 0.0000000e+00 
4.6458335e+00 4.9441773e-01 0.0000000e+00 
4.7500000e+00 0.0000000e+00 0.0000000e+00 
4.7500000e+00 2.5000000e-01 0.0000000e+00 
4.7500000e+00 7.5000000e-01 0.0000000e+00 
4.7500000e+00 1.0000000e+00 0.0000000e+00 
5.0000000e+00 0.0000000e+00 0.0000000e+00 
5.0000000e+00 2.5000000e-01 0.0000000e+00 
5.0000000e+00 5.0000000e-01 0.0000000e+00 
5.0000000e+00 7.5000000e-01 0.0000000e+00 
5.0000000e+00 1.0000000e+00 0.0000000e+00 

CELLS 38 266
6 0 5 4 2 3 1
6 79 89 85 84 87 82
6 62 52 55 57 53 58
6 85 89 98 87 93 91
6 79 85 75 82 80 76
6 55 52 45 53 49 50
6 75 85 81 80 83 78
6 79 75 69 76 71 74
6 45 52 42 49 47 44
6 55 45 48 50 46 51
6 69 75 65 71 70 66
6 65 75 72 70 73 68
6 69 65 59 66 61 64
6 59 65 55 61 60 56
6 37 48 45 43 46 41
6 100 90 98 95 94 99
6 26 18 11 21 13 19
6 11 18 4 13 10 6
6 26 11 24 19 17 23
6 24 11 15 17 12 20
6 26 24 33 23 28 29
6 33 24 35 28 30 34
6 35 24 27 30 25 31
6 33 35 42 34 39 38
6 42 35 45 39 40 44
6 45 35 37 40 36 41
6 15 27 24 22 25 20
6 96 98 89 97 93 92
6 81 72 75 77 73 78
6 14 4 18 8 10 16
6 5 15 11 9 12 7
6 48 59 55 54 56 51
6 90 81 85 86 83 88
6 27 37 35 32 36 31
6 72 62 65 67 63 68
6 62 55 65 58 60 63
6 90 85 98 88 91 94
6 5 11 4 7 6 3

CELL_TYPES 38
22
22
22
22
22
22
22
22
22
22
22
22
22
22
22
22
22
22
22
22
22
22
22
22
22
22
22
22
22
22
22
22
22
22
22
22
22
22
POINT_DATA 101
FIELD FieldData 1
DISPLACEMENT 3 101  float
0.0000000e+00 0.0000000e+00 0.0000000e+00 
0.0000000e+00 0.0000000e+00 0.0000000e+00 
0.0000000e+00 0.0000000e+00 0.0000000e+00 
-7.3935571e-12 -2.2555809e-12 0.0000000e+00 
0.0000000e+00 0.0000000e+00 0.0000000e+00 
0.0000000e+00 0.0000000e+00 0.0000000e+00 
-1.6244568e-11 -2.8778416e-12 0.0000000e+00 
-3.3787008e-11 -8.0234716e-12 0.0000000e+00 
0.0000000e+00 0.0000000e+00 0.0000000e+00 
0.0000000e+00 0.0000000e+00 0.0000000e+00 
-1.2121209e-11 -3.7891836e-14 0.0000000e+00 
-7.6845440e-11 -5.8099606e-12 0.0000000e+00 
-9.0840883e-11 -2.1103456e-11 0.0000000e+00 
-5.9254969e-11 4.3626645e-13 0.0000000e+00 
0.0000000e+00 0.0000000e+00 0.0000000e+00 
0.0000000e+00 0.0000000e+00 0.0000000e+00 
-1.6511837e-11 3.6464460e-12 0.0000000e+00 
-2.1578171e-10 -2.2273218e-11 0.0000000e+00 
-4.5777288e-11 7.6552731e-12 0.0000000e+00 
-1.5460863e-10 4.6155679e-13 0.0000000e+00 
-2.7489264e-10 -5.9489288e-11 0.0000000e+00 
-1.2737159e-10 2.0882717e-11 0.0000000e+00 
0.0000000e+00 0.0000000e+00 0.0000000e+00 
-4.5439541e-10 1.4603176e-11 0.0000000e+00 
-6.3415090e-10 -3.1412182e-11 0.0000000e+00 
-7.3828788e-10 -1.5441218e-10 0.0000000e+00 
-3.2823300e-10 6.1632942e-11 0.0000000e+00 
0.0000000e+00 0.0000000e+00 0.0000000e+00 
-1.1761122e-09 4.7522146e-11 0.0000000e+00 
-8.6892710e-10 1.4647959e-10 0.0000000e+00 
-1.6691319e-09 -1.0353002e-10 0.0000000e+00 
-1.9479021e-09 -3.6870540e-10 0.0000000e+00 
0.0000000e+00 0.0000000e+00 0.0000000e+00 
-2.2571980e-09 4.4676005e-10 0.0000000e+00 
-3.0984484e-09 1.6585062e-10 0.0000000e+00 
-4.3684087e-09 -5.0909563e-12 0.0000000e+00 
-5.3344276e-09 -8.6292290e-10 0.0000000e+00 
0.0000000e+00 0.0000000e+00 0.0000000e+00 
-5.9234706e-09 1.0779669e-09 0.0000000e+00 
-7.9595708e-09 5.0104132e-10 0.0000000e+00 
-1.1223609e-08 -1.8468542e-10 0.0000000e+00 
-1.4375103e-08 -1.7139568e-09 0.0000000e+00 
-1.5279847e-08 3.1526646e-09 0.0000000e+00 
0.0000000e+00 0.0000000e+00 0.0000000e+00 
-2.0814197e-08 1.7898534e-09 0.0000000e+00 
-2.9180967e-08 3.5976495e-09 0.0000000e+00 
-4.1008416e-08 -1.9049216e-09 0.0000000e+00 
-4.2146986e-08 7.7528943e-09 0.0000000e+00 
0.0000000e+00 0.0000000e+00 0.0000000e+00 
-5.1401074e-08 5.7160823e-09 0.0000000e+00 
-6.5959981e-08 7.7076301e-09 0.0000000e+00 
-1.1648039e-07 2.1903899e-09 0.0000000e+00 
-1.0980937e-07 2.7646820e-08 0.0000000e+00 
-1.3206170e-07 2.2933321e-08 0.0000000e+00 
0.0000000e+00 0.0000000e+00 0.0000000e+00 
-1.6457118e-07 8.0162032e-08 0.0000000e+00 
-3.6005125e-07 2.4247324e-08 0.0000000e+00 
-3.4786154e-07 8.0510922e-08 0.0000000e+00 
-2.9527573e-07 1.3884676e-07 0.0000000e+00 
0.0000000e+00 0.0000000e+00 0.0000000e+00 
-5.2541708e-07 2.0246920e-07 0.0000000e+00 
-1.0587677e-06 -4.0962487e-08 0.0000000e+00 
-8.8136846e-07 5.3314523e-07 0.0000000e+00 
-6.6403987e-07 6.8981836e-07 0.0000000e+00 
0.0000000e+00 0.0000000e+00 0.0000000e+00 
-1.7063584e-06 1.8773856e-07 0.0000000e+00 
-3.5161945e-06 -8.5057695e-07 0.0000000e+00 
-9.0575361e-07 1.8745325e-06 0.0000000e+00 
-2.0949205e-06 2.5184136e-06 0.0000000e+00 
0.0000000e+00 0.0000000e+00 0.0000000e+00 
-7.2514631e-06 -8.9933110e-07 0.0000000e+00 
-1.0105173e-05 -7.7751738e-06 0.0000000e+00 
7.5821895e-08 1.0662391e-05 0.0000000e+00 
-8.4836201e-06 1.0295592e-05 0.0000000e+00 
0.0000000e+00 0.0000000e+00 0.0000000e+00 
-2.5723823e-05 -2.9090375e-05 0.0000000e+00 
-1.5714608e-05 -1.8862138e-05 0.0000000e+00 
5.9770817e-05 2.2513492e-05 0.0000000e+00 
-4.6089797e-05 1.0060207e-05 0.0000000e+00 
0.0000000e+00 0.0000000e+00 0.0000000e+00 
-3.8826944e-05 -7.2924100e-05 0.0000000e+00 
1.9249189e-04 5.9325193e-05 0.0000000e+00 
-2.9069633e-05 -5.6267862e-05 0.0000000e+00 
-2.1373676e-04 -3.0785584e-04 0.0000000e+00 
0.0000000e+00 0.0000000e+00 0.0000000e+00 
-7.6948272e-06 -2.7427444e-04 0.0000000e+00 
3.6140296e-04 -1.2070482e-03 0.0000000e+00 
-3.5347848e-06 -7.4374177e-05 0.0000000e+00 
-3.3867185e-04 -1.4210179e-03 0.0000000e+00 
0.0000000e+00 0.0000000e+00 0.0000000e+00 
7.5796772e-05 -4.8908419e-03 0.0000000e+00 
1.2988714e-04 -2.5719433e-04 0.0000000e+00 
0.0000000e+00 0.0000000e+00 0.0000000e+00 
2.9247029e-05 -7.6293873e-05 0.0000000e+00 
3.6187388e-04 -5.3428236e-04 0.0000000e+00 
-4.8333310e-04 -6.7055551e-04 0.0000000e+00 
0.0000000e+00 0.0000000e+00 0.0000000e+00 
0.0000000e+00 0.0000000e+00 0.0000000e+00 
0.0000000e+00 0.0000000e+00 0.0000000e+00 
0.0000000e+00 0.0000000e+00 0.0000000e+00 
0.0000000e+00 0.0000000e+00 0.0000000e+00 
CELL_DATA 38
FIELD FieldData 0
