# vtk DataFile Version 4.0
vtk output
ASCII
DATASET UNSTRUCTURED_GRID
POINTS 101 float
0.0000000e+00 0.0000000e+00 0.0000000e+00 
0.0000000e+00 2.5000000e-01 0.0000000e+00 
2.5000000e-01 0.0000000e+00 0.0000000e+00 
2.5000000e-01 2.5000000e-01 0.0000000e+00 
0.0000000e+00 5.0000000e-01 0.0000000e+00 
5.0000000e-01 0.0000000e+00 0.0000000e+00 
3.5416666e-01 5.0558227e-01 0.0000000e+00 
6.0416669e-01 2.5558227e-01 0.0000000e+00 
0.0000000e+00 7.5000000e-01 0.0000000e+00 
7.5000000e-01 0.0000000e+00 0.0000000e+00 
2.5000000e-01 7.5000000e-01 0.0000000e+00 
7.0833331e-01 5.1116455e-01 0.0000000e+00 
8.5416669e-01 2.5558227e-01 0.0000000e+00 
6.0416669e-01 7.5558227e-01 0.0000000e+00 
0.0000000e+00 1.0000000e+00 0.0000000e+00 
1.0000000e+00 0.0000000e+00 0.0000000e+00 
2.5000000e-01 1.0000000e+00 0.0000000e+00 
9.7916669e-01 5.3907591e-01 0.0000000e+00 
5.0000000e-01 1.0000000e+00 0.0000000e+00 
8.5416669e-01 7.5558227e-01 0.0000000e+00 
1.1250000e+00 2.8349364e-01 0.0000000e+00 
7.5000000e-01 1.0000000e+00 0.0000000e+00 
1.2500000e+00 0.0000000e+00 0.0000000e+00 
1.1250000e+00 7.8349364e-01 0.0000000e+00 
1.2500000e+00 5.6698728e-01 0.0000000e+00 
1.3750000e+00 2.8349364e-01 0.0000000e+00 
1.0000000e+00 1.0000000e+00 0.0000000e+00 
1.5000000e+00 0.0000000e+00 0.0000000e+00 
1.3750000e+00 7.8349364e-01 0.0000000e+00 
1.2500000e+00 1.0000000e+00 0.0000000e+00 
1.5000000e+00 5.6698728e-01 0.0000000e+00 
1.6250000e+00 2.8349364e-01 0.0000000e+00 
1.7500000e+00 0.0000000e+00 0.0000000e+00 
1.5000000e+00 1.0000000e+00 0.0000000e+00 
1.6250000e+00 7.8349364e-01 0.0000000e+00 
1.7500000e+00 5.6698728e-01 0.0000000e+00 
1.8750000e+00 2.8349364e-01 0.0000000e+00 
2.0000000e+00 0.0000000e+00 0.0000000e+00 
1.7500000e+00 1.0000000e+00 0.0000000e+00 
1.8750000e+00 7.8349364e-01 0.0000000e+00 
2.0000000e+00 5.6698728e-01 0.0000000e+00 
2.1250000e+00 2.8349364e-01 0.0000000e+00 
2.0000000e+00 1.0000000e+00 0.0000000e+00 
2.2500000e+00 0.0000000e+00 0.0000000e+00 
2.1250000e+00 7.8349364e-01 0.0000000e+00 
2.2500000e+00 5.6698728e-01 0.0000000e+00 
2.3750000e+00 2.8349364e-01 0.0000000e+00 
2.2500000e+00 1.0000000e+00 0.0000000e+00 
2.5000000e+00 0.0000000e+00 0.0000000e+00 
2.3750000e+00 7.8349364e-01 0.0000000e+00 
2.5000000e+00 5.6698728e-01 0.0000000e+00 
2.6250000e+00 2.8349364e-01 0.0000000e+00 
2.5000000e+00 1.0000000e+00 0.0000000e+00 
2.6250000e+00 7.8349364e-01 0.0000000e+00 
2.7500000e+00 0.0000000e+00 0.0000000e+00 
2.7500000e+00 5.6698728e-01 0.0000000e+00 
2.8750000e+00 2.8349364e-01 0.0000000e+00 
2.7500000e+00 1.0000000e+00 0.0000000e+00 
2.8750000e+00 7.8349364e-01 0.0000000e+00 
3.0000000e+00 0.0000000e+00 0.0000000e+00 
3.0000000e+00 5.0000000e-01 0.0000000e+00 
3.1250000e+00 2.1650635e-01 0.0000000e+00 
3.0000000e+00 1.0000000e+00 0.0000000e+00 
3.1250000e+00 7.1650636e-01 0.0000000e+00 
3.2500000e+00 0.0000000e+00 0.0000000e+00 
3.2500000e+00 4.3301269e-01 0.0000000e+00 
3.3750000e+00 2.1650635e-01 0.0000000e+00 
3.2500000e+00 1.0000000e+00 0.0000000e+00 
3.3750000e+00 7.1650636e-01 0.0000000e+00 
3.5000000e+00 0.0000000e+00 0.0000000e+00 
3.5000000e+00 4.3301269e-01 0.0000000e+00 
3.6250000e+00 2.1650635e-01 0.0000000e+00 
3.5000000e+00 1.0000000e+00 0.0000000e+00 
3.6250000e+00 7.1650636e-01 0.0000000e+00 
3.7500000e+00 0.0000000e+00 0.0000000e+00 
3.7500000e+00 4.3301269e-01 0.0000000e+00 
3.8750000e+00 2.1650635e-01 0.0000000e+00 
3.7500000e+00 1.0000000e+00 0.0000000e+00 
3.8750000e+00 7.1650636e-01 0.0000000e+00 
4.0000000e+00 0.0000000e+00 0.0000000e+00 
4.0208335e+00 4.6092409e-01 0.0000000e+00 
4.0000000e+00 1.0000000e+00 0.0000000e+00 
4.1458335e+00 2.4441773e-01 0.0000000e+00 
4.1458335e+00 7.4441773e-01 0.0000000e+00 
4.2500000e+00 0.0000000e+00 0.0000000e+00 
4.2916665e+00 4.8883545e-01 0.0000000e+00 
4.2500000e+00 1.0000000e+00 0.0000000e+00 
4.3958335e+00 2.4441773e-01 0.0000000e+00 
4.3958335e+00 7.4441773e-01 0.0000000e+00 
4.5000000e+00 0.0000000e+00 0.0000000e+00 
4.5000000e+00 1.0000000e+00 0.0000000e+00 
4.6458335e+00 4.9441773e-01 0.0000000e+00 
4.7500000e+00 0.0000000e+00 0.0000000e+00 
4.7500000e+00 2.5000000e-01 0.0000000e+00 
4.7500000e+00 7.5000000e-01 0.0000000e+00 
4.7500000e+00 1.0000000e+00 0.0000000e+00 
5.0000000e+00 0.0000000e+00 0.0000000e+00 
5.0000000e+00 2.5000000e-01 0.0000000e+00 
5.0000000e+00 5.0000000e-01 0.0000000e+00 
5.0000000e+00 7.5000000e-01 0.0000000e+00 
5.0000000e+00 1.0000000e+00 0.0000000e+00 

CELLS 38 266
6 0 5 4 2 3 1
6 79 89 85 84 87 82
6 62 52 55 57 53 58
6 85 89 98 87 93 91
6 79 85 75 82 80 76
6 55 52 45 53 49 50
6 75 85 81 80 83 78
6 79 75 69 76 71 74
6 45 52 42 49 47 44
6 55 45 48 50 46 51
6 69 75 65 71 70 66
6 65 75 72 70 73 68
6 69 65 59 66 61 64
6 59 65 55 61 60 56
6 37 48 45 43 46 41
6 100 90 98 95 94 99
6 26 18 11 21 13 19
6 11 18 4 13 10 6
6 26 11 24 19 17 23
6 24 11 15 17 12 20
6 26 24 33 23 28 29
6 33 24 35 28 30 34
6 35 24 27 30 25 31
6 33 35 42 34 39 38
6 42 35 45 39 40 44
6 45 35 37 40 36 41
6 15 27 24 22 25 20
6 96 98 89 97 93 92
6 81 72 75 77 73 78
6 14 4 18 8 10 16
6 5 15 11 9 12 7
6 48 59 55 54 56 51
6 90 81 85 86 83 88
6 27 37 35 32 36 31
6 72 62 65 67 63 68
6 62 55 65 58 60 63
6 90 85 98 88 91 94
6 5 11 4 7 6 3

CELL_TYPES 38
22
22
22
22
22
22
22
22
22
22
22
22
22
22
22
22
22
22
22
22
22
22
22
22
22
22
22
22
22
22
22
22
22
22
22
22
22
22
POINT_DATA 101
FIELD FieldData 1
DISPLACEMENT 3 101  float
0.0000000e+00 0.0000000e+00 0.0000000e+00 
0.0000000e+00 0.0000000e+00 0.0000000e+00 
0.0000000e+00 0.0000000e+00 0.0000000e+00 
-2.4071947e-05 4.6367804e-06 0.0000000e+00 
0.0000000e+00 0.0000000e+00 0.0000000e+00 
0.0000000e+00 0.0000000e+00 0.0000000e+00 
-3.2195883e-05 2.4223482e-05 0.0000000e+00 
-8.8892484e-05 -4.8443148e-06 0.0000000e+00 
0.0000000e+00 0.0000000e+00 0.0000000e+00 
0.0000000e+00 0.0000000e+00 0.0000000e+00 
1.9962306e-06 2.7009981e-05 0.0000000e+00 
-9.5741481e-05 2.6482467e-06 0.0000000e+00 
-1.7170754e-04 -5.3843778e-05 0.0000000e+00 
9.4871384e-06 3.6021152e-05 0.0000000e+00 
0.0000000e+00 0.0000000e+00 0.0000000e+00 
0.0000000e+00 0.0000000e+00 0.0000000e+00 
1.1756615e-05 2.2622289e-05 0.0000000e+00 
-1.9380331e-04 -1.2256928e-04 0.0000000e+00 
4.7555892e-05 3.7280181e-05 0.0000000e+00 
1.9675337e-05 -2.6688684e-05 0.0000000e+00 
-3.0960015e-04 -2.0760248e-04 0.0000000e+00 
1.5506118e-04 -2.4149529e-06 0.0000000e+00 
0.0000000e+00 0.0000000e+00 0.0000000e+00 
5.8098416e-05 -2.7282367e-04 0.0000000e+00 
-3.3956740e-04 -5.1365979e-04 0.0000000e+00 
-4.3144880e-04 -4.9207895e-04 0.0000000e+00 
3.2115396e-04 -1.3935055e-04 0.0000000e+00 
0.0000000e+00 0.0000000e+00 0.0000000e+00 
1.8963687e-05 -8.9323666e-04 0.0000000e+00 
6.8668008e-04 -5.5800640e-04 0.0000000e+00 
-4.8639573e-04 -1.2729692e-03 0.0000000e+00 
-4.6911687e-04 -9.4369706e-04 0.0000000e+00 
0.0000000e+00 0.0000000e+00 0.0000000e+00 
1.1674630e-03 -1.5188236e-03 0.0000000e+00 
-2.0916358e-04 -2.3007258e-03 0.0000000e+00 
-5.0350977e-04 -2.4959911e-03 0.0000000e+00 
-2.8267840e-04 -1.3817472e-03 0.0000000e+00 
0.0000000e+00 0.0000000e+00 0.0000000e+00 
1.3662121e-03 -3.9172624e-03 0.0000000e+00 
-6.3267810e-04 -5.5433554e-03 0.0000000e+00 
-6.0521390e-05 -3.5257400e-03 0.0000000e+00 
1.2072650e-04 -1.4305380e-03 0.0000000e+00 
1.0873115e-04 -1.1511619e-02 0.0000000e+00 
0.0000000e+00 0.0000000e+00 0.0000000e+00 
6.6768489e-04 -5.6244219e-03 0.0000000e+00 
3.6374433e-04 -2.6700003e-03 0.0000000e+00 
2.9802247e-04 -1.1070470e-03 0.0000000e+00 
-1.0860395e-03 -4.1070902e-03 0.0000000e+00 
0.0000000e+00 0.0000000e+00 0.0000000e+00 
2.2303671e-04 -2.6160341e-03 0.0000000e+00 
3.1569111e-04 -1.7119352e-03 0.0000000e+00 
2.7116263e-04 -8.0981501e-04 0.0000000e+00 
-7.6877704e-04 -2.0433695e-03 0.0000000e+00 
-8.6853841e-05 -1.6792363e-03 0.0000000e+00 
0.0000000e+00 0.0000000e+00 0.0000000e+00 
1.7657866e-04 -1.3594497e-03 0.0000000e+00 
2.3269527e-04 -6.6176074e-04 0.0000000e+00 
-2.5421294e-04 -1.8702133e-03 0.0000000e+00 
-2.7041743e-04 -2.1150904e-03 0.0000000e+00 
0.0000000e+00 0.0000000e+00 0.0000000e+00 
2.3976361e-04 -1.1281644e-03 0.0000000e+00 
2.2308331e-04 -3.9485353e-04 0.0000000e+00 
-3.3840234e-04 -3.8971009e-03 0.0000000e+00 
2.1507998e-04 -1.6546315e-03 0.0000000e+00 
0.0000000e+00 0.0000000e+00 0.0000000e+00 
2.6840626e-04 -6.2444189e-04 0.0000000e+00 
2.0898150e-04 -2.4245931e-04 0.0000000e+00 
-5.4152106e-04 -1.3602863e-03 0.0000000e+00 
1.4516877e-04 -7.2673173e-04 0.0000000e+00 
0.0000000e+00 0.0000000e+00 0.0000000e+00 
2.4423373e-04 -3.3002521e-04 0.0000000e+00 
1.6583171e-04 -1.2664647e-04 0.0000000e+00 
-4.4300334e-04 -4.6569764e-04 0.0000000e+00 
6.2401552e-05 -2.5839178e-04 0.0000000e+00 
0.0000000e+00 0.0000000e+00 0.0000000e+00 
1.7682118e-04 -1.3743516e-04 0.0000000e+00 
1.1247965e-04 -5.3031294e-05 0.0000000e+00 
-2.5466082e-04 -1.5560404e-04 0.0000000e+00 
2.7468997e-05 -6.1500999e-05 0.0000000e+00 
0.0000000e+00 0.0000000e+00 0.0000000e+00 
9.2719645e-05 -2.3550898e-05 0.0000000e+00 
-1.1101583e-04 -1.6054035e-05 0.0000000e+00 
6.4821434e-05 -1.1410920e-05 0.0000000e+00 
4.8378247e-06 1.2188874e-05 0.0000000e+00 
0.0000000e+00 0.0000000e+00 0.0000000e+00 
4.0509931e-05 1.0110798e-05 0.0000000e+00 
-4.5244167e-05 1.7757488e-05 0.0000000e+00 
3.2446835e-05 1.7557417e-06 0.0000000e+00 
4.0421855e-06 2.3778932e-05 0.0000000e+00 
0.0000000e+00 0.0000000e+00 0.0000000e+00 
-6.6114940e-06 2.2985530e-05 0.0000000e+00 
1.3153860e-05 1.1405419e-05 0.0000000e+00 
0.0000000e+00 0.0000000e+00 0.0000000e+00 
8.6279306e-06 2.5822592e-06 0.0000000e+00 
1.9154909e-06 1.2009507e-05 0.0000000e+00 
1.3943287e-06 1.1385979e-05 0.0000000e+00 
0.0000000e+00 0.0000000e+00 0.0000000e+00 
0.0000000e+00 0.0000000e+00 0.0000000e+00 
0.0000000e+00 0.0000000e+00 0.0000000e+00 
0.0000000e+00 0.0000000e+00 0.0000000e+00 
0.0000000e+00 0.0000000e+00 0.0000000e+00 
CELL_DATA 38
FIELD FieldData 0
