# vtk DataFile Version 4.0
vtk output
ASCII
DATASET UNSTRUCTURED_GRID
POINTS 101 float
0.0000000e+00 0.0000000e+00 0.0000000e+00 
0.0000000e+00 2.5000000e-01 0.0000000e+00 
2.5000000e-01 0.0000000e+00 0.0000000e+00 
2.5000000e-01 2.5000000e-01 0.0000000e+00 
0.0000000e+00 5.0000000e-01 0.0000000e+00 
5.0000000e-01 0.0000000e+00 0.0000000e+00 
3.5416666e-01 5.0558227e-01 0.0000000e+00 
6.0416669e-01 2.5558227e-01 0.0000000e+00 
0.0000000e+00 7.5000000e-01 0.0000000e+00 
7.5000000e-01 0.0000000e+00 0.0000000e+00 
2.5000000e-01 7.5000000e-01 0.0000000e+00 
7.0833331e-01 5.1116455e-01 0.0000000e+00 
8.5416669e-01 2.5558227e-01 0.0000000e+00 
6.0416669e-01 7.5558227e-01 0.0000000e+00 
0.0000000e+00 1.0000000e+00 0.0000000e+00 
1.0000000e+00 0.0000000e+00 0.0000000e+00 
2.5000000e-01 1.0000000e+00 0.0000000e+00 
9.7916669e-01 5.3907591e-01 0.0000000e+00 
5.0000000e-01 1.0000000e+00 0.0000000e+00 
8.5416669e-01 7.5558227e-01 0.0000000e+00 
1.1250000e+00 2.8349364e-01 0.0000000e+00 
7.5000000e-01 1.0000000e+00 0.0000000e+00 
1.2500000e+00 0.0000000e+00 0.0000000e+00 
1.1250000e+00 7.8349364e-01 0.0000000e+00 
1.2500000e+00 5.6698728e-01 0.0000000e+00 
1.3750000e+00 2.8349364e-01 0.0000000e+00 
1.0000000e+00 1.0000000e+00 0.0000000e+00 
1.5000000e+00 0.0000000e+00 0.0000000e+00 
1.3750000e+00 7.8349364e-01 0.0000000e+00 
1.2500000e+00 1.0000000e+00 0.0000000e+00 
1.5000000e+00 5.6698728e-01 0.0000000e+00 
1.6250000e+00 2.8349364e-01 0.0000000e+00 
1.7500000e+00 0.0000000e+00 0.0000000e+00 
1.5000000e+00 1.0000000e+00 0.0000000e+00 
1.6250000e+00 7.8349364e-01 0.0000000e+00 
1.7500000e+00 5.6698728e-01 0.0000000e+00 
1.8750000e+00 2.8349364e-01 0.0000000e+00 
2.0000000e+00 0.0000000e+00 0.0000000e+00 
1.7500000e+00 1.0000000e+00 0.0000000e+00 
1.8750000e+00 7.8349364e-01 0.0000000e+00 
2.0000000e+00 5.6698728e-01 0.0000000e+00 
2.1250000e+00 2.8349364e-01 0.0000000e+00 
2.0000000e+00 1.0000000e+00 0.0000000e+00 
2.2500000e+00 0.0000000e+00 0.0000000e+00 
2.1250000e+00 7.8349364e-01 0.0000000e+00 
2.2500000e+00 5.6698728e-01 0.0000000e+00 
2.3750000e+00 2.8349364e-01 0.0000000e+00 
2.2500000e+00 1.0000000e+00 0.0000000e+00 
2.5000000e+00 0.0000000e+00 0.0000000e+00 
2.3750000e+00 7.8349364e-01 0.0000000e+00 
2.5000000e+00 5.6698728e-01 0.0000000e+00 
2.6250000e+00 2.8349364e-01 0.0000000e+00 
2.5000000e+00 1.0000000e+00 0.0000000e+00 
2.6250000e+00 7.8349364e-01 0.0000000e+00 
2.7500000e+00 0.0000000e+00 0.0000000e+00 
2.7500000e+00 5.6698728e-01 0.0000000e+00 
2.8750000e+00 2.8349364e-01 0.0000000e+00 
2.7500000e+00 1.0000000e+00 0.0000000e+00 
2.8750000e+00 7.8349364e-01 0.0000000e+00 
3.0000000e+00 0.0000000e+00 0.0000000e+00 
3.0000000e+00 5.0000000e-01 0.0000000e+00 
3.1250000e+00 2.1650635e-01 0.0000000e+00 
3.0000000e+00 1.0000000e+00 0.0000000e+00 
3.1250000e+00 7.1650636e-01 0.0000000e+00 
3.2500000e+00 0.0000000e+00 0.0000000e+00 
3.2500000e+00 4.3301269e-01 0.0000000e+00 
3.3750000e+00 2.1650635e-01 0.0000000e+00 
3.2500000e+00 1.0000000e+00 0.0000000e+00 
3.3750000e+00 7.1650636e-01 0.0000000e+00 
3.5000000e+00 0.0000000e+00 0.0000000e+00 
3.5000000e+00 4.3301269e-01 0.0000000e+00 
3.6250000e+00 2.1650635e-01 0.0000000e+00 
3.5000000e+00 1.0000000e+00 0.0000000e+00 
3.6250000e+00 7.1650636e-01 0.0000000e+00 
3.7500000e+00 0.0000000e+00 0.0000000e+00 
3.7500000e+00 4.3301269e-01 0.0000000e+00 
3.8750000e+00 2.1650635e-01 0.0000000e+00 
3.7500000e+00 1.0000000e+00 0.0000000e+00 
3.8750000e+00 7.1650636e-01 0.0000000e+00 
4.0000000e+00 0.0000000e+00 0.0000000e+00 
4.0208335e+00 4.6092409e-01 0.0000000e+00 
4.0000000e+00 1.0000000e+00 0.0000000e+00 
4.1458335e+00 2.4441773e-01 0.0000000e+00 
4.1458335e+00 7.4441773e-01 0.0000000e+00 
4.2500000e+00 0.0000000e+00 0.0000000e+00 
4.2916665e+00 4.8883545e-01 0.0000000e+00 
4.2500000e+00 1.0000000e+00 0.0000000e+00 
4.3958335e+00 2.4441773e-01 0.0000000e+00 
4.3958335e+00 7.4441773e-01 0.0000000e+00 
4.5000000e+00 0.0000000e+00 0.0000000e+00 
4.5000000e+00 1.0000000e+00 0.0000000e+00 
4.6458335e+00 4.9441773e-01 0.0000000e+00 
4.7500000e+00 0.0000000e+00 0.0000000e+00 
4.7500000e+00 2.5000000e-01 0.0000000e+00 
4.7500000e+00 7.5000000e-01 0.0000000e+00 
4.7500000e+00 1.0000000e+00 0.0000000e+00 
5.0000000e+00 0.0000000e+00 0.0000000e+00 
5.0000000e+00 2.5000000e-01 0.0000000e+00 
5.0000000e+00 5.0000000e-01 0.0000000e+00 
5.0000000e+00 7.5000000e-01 0.0000000e+00 
5.0000000e+00 1.0000000e+00 0.0000000e+00 

CELLS 38 266
6 0 5 4 2 3 1
6 79 89 85 84 87 82
6 62 52 55 57 53 58
6 85 89 98 87 93 91
6 79 85 75 82 80 76
6 55 52 45 53 49 50
6 75 85 81 80 83 78
6 79 75 69 76 71 74
6 45 52 42 49 47 44
6 55 45 48 50 46 51
6 69 75 65 71 70 66
6 65 75 72 70 73 68
6 69 65 59 66 61 64
6 59 65 55 61 60 56
6 37 48 45 43 46 41
6 100 90 98 95 94 99
6 26 18 11 21 13 19
6 11 18 4 13 10 6
6 26 11 24 19 17 23
6 24 11 15 17 12 20
6 26 24 33 23 28 29
6 33 24 35 28 30 34
6 35 24 27 30 25 31
6 33 35 42 34 39 38
6 42 35 45 39 40 44
6 45 35 37 40 36 41
6 15 27 24 22 25 20
6 96 98 89 97 93 92
6 81 72 75 77 73 78
6 14 4 18 8 10 16
6 5 15 11 9 12 7
6 48 59 55 54 56 51
6 90 81 85 86 83 88
6 27 37 35 32 36 31
6 72 62 65 67 63 68
6 62 55 65 58 60 63
6 90 85 98 88 91 94
6 5 11 4 7 6 3

CELL_TYPES 38
22
22
22
22
22
22
22
22
22
22
22
22
22
22
22
22
22
22
22
22
22
22
22
22
22
22
22
22
22
22
22
22
22
22
22
22
22
22
POINT_DATA 101
FIELD FieldData 1
DISPLACEMENT 3 101  float
0.0000000e+00 0.0000000e+00 0.0000000e+00 
0.0000000e+00 0.0000000e+00 0.0000000e+00 
0.0000000e+00 0.0000000e+00 0.0000000e+00 
-5.2753076e-06 -1.0095270e-06 0.0000000e+00 
0.0000000e+00 0.0000000e+00 0.0000000e+00 
0.0000000e+00 0.0000000e+00 0.0000000e+00 
-9.2466207e-06 -1.4967545e-06 0.0000000e+00 
-2.0650192e-05 -2.1741373e-05 0.0000000e+00 
0.0000000e+00 0.0000000e+00 0.0000000e+00 
0.0000000e+00 0.0000000e+00 0.0000000e+00 
-3.9307324e-06 2.7510027e-06 0.0000000e+00 
-4.7659294e-05 -7.0107431e-05 0.0000000e+00 
-3.0288686e-05 -5.5312899e-05 0.0000000e+00 
-2.8322691e-05 -1.4185649e-05 0.0000000e+00 
0.0000000e+00 0.0000000e+00 0.0000000e+00 
0.0000000e+00 0.0000000e+00 0.0000000e+00 
4.4848612e-06 1.8558832e-06 0.0000000e+00 
-1.0485241e-04 -2.3492484e-04 0.0000000e+00 
1.6733429e-05 -4.7414701e-07 0.0000000e+00 
-1.2280261e-04 -1.5761421e-04 0.0000000e+00 
-2.9519639e-05 -1.0870791e-04 0.0000000e+00 
1.5961032e-04 -6.1863051e-05 0.0000000e+00 
0.0000000e+00 0.0000000e+00 0.0000000e+00 
-2.5352676e-04 -1.0435954e-03 0.0000000e+00 
2.4460062e-06 -5.1840459e-04 0.0000000e+00 
2.8275053e-05 -1.0340863e-04 0.0000000e+00 
3.4106916e-04 -8.6707040e-04 0.0000000e+00 
0.0000000e+00 0.0000000e+00 0.0000000e+00 
3.2081080e-04 -9.1246504e-04 0.0000000e+00 
-4.6991154e-05 -3.8490454e-03 0.0000000e+00 
1.1340596e-04 -2.4806053e-04 0.0000000e+00 
2.9279197e-05 -6.2661587e-05 0.0000000e+00 
0.0000000e+00 0.0000000e+00 0.0000000e+00 
-3.6994947e-04 -2.6645506e-04 0.0000000e+00 
6.2230691e-05 -5.8178404e-05 0.0000000e+00 
4.6382116e-05 -9.2238624e-05 0.0000000e+00 
9.6450976e-06 -3.9119823e-05 0.0000000e+00 
0.0000000e+00 0.0000000e+00 0.0000000e+00 
-6.3312182e-05 -1.2764477e-05 0.0000000e+00 
-3.1006883e-05 -6.1984661e-05 0.0000000e+00 
-1.8246195e-05 -9.9434292e-05 0.0000000e+00 
2.0897859e-07 -3.9108214e-05 0.0000000e+00 
1.2056455e-04 -2.8526699e-04 0.0000000e+00 
0.0000000e+00 0.0000000e+00 0.0000000e+00 
-8.2287537e-05 -3.4725870e-04 0.0000000e+00 
5.0393842e-06 -1.7123824e-04 0.0000000e+00 
1.3703901e-05 -3.3979926e-05 0.0000000e+00 
-1.3464289e-05 -1.2826665e-03 0.0000000e+00 
0.0000000e+00 0.0000000e+00 0.0000000e+00 
1.0900906e-04 -3.0351052e-04 0.0000000e+00 
4.1790154e-05 -8.1421684e-05 0.0000000e+00 
1.3557928e-05 -1.8419731e-05 0.0000000e+00 
-1.2391590e-04 -8.7568289e-05 0.0000000e+00 
2.3731260e-05 -1.8016779e-05 0.0000000e+00 
0.0000000e+00 0.0000000e+00 0.0000000e+00 
2.4132523e-05 -2.1110784e-05 0.0000000e+00 
7.6832066e-06 -5.7140451e-06 0.0000000e+00 
-3.8053324e-05 1.5158844e-06 0.0000000e+00 
3.0373394e-06 2.3991001e-06 0.0000000e+00 
0.0000000e+00 0.0000000e+00 0.0000000e+00 
7.8849544e-06 -1.7140037e-06 0.0000000e+00 
2.4820047e-06 -1.1856004e-06 0.0000000e+00 
-7.4280592e-08 1.8295715e-06 0.0000000e+00 
1.7952844e-06 6.6874520e-07 0.0000000e+00 
0.0000000e+00 0.0000000e+00 0.0000000e+00 
1.6778039e-06 -3.4750366e-07 0.0000000e+00 
8.6021237e-07 -1.6363599e-07 0.0000000e+00 
3.1774255e-07 6.4892879e-07 0.0000000e+00 
6.0919916e-07 2.5877037e-07 0.0000000e+00 
0.0000000e+00 0.0000000e+00 0.0000000e+00 
5.8105212e-07 1.8447695e-08 0.0000000e+00 
2.8554498e-07 -3.6598941e-08 0.0000000e+00 
4.7465733e-07 2.4156611e-07 0.0000000e+00 
2.3914635e-07 6.9938764e-08 0.0000000e+00 
0.0000000e+00 0.0000000e+00 0.0000000e+00 
1.8563243e-07 2.5725742e-08 0.0000000e+00 
8.9810975e-08 -6.6375780e-09 0.0000000e+00 
2.0424319e-07 6.4384423e-08 0.0000000e+00 
9.6933157e-08 1.9894983e-08 0.0000000e+00 
0.0000000e+00 0.0000000e+00 0.0000000e+00 
6.1994555e-08 2.7306120e-09 0.0000000e+00 
8.4542833e-08 2.0187017e-08 0.0000000e+00 
3.0163950e-08 -3.3355738e-09 0.0000000e+00 
3.6441033e-08 4.1505719e-09 0.0000000e+00 
0.0000000e+00 0.0000000e+00 0.0000000e+00 
2.0542680e-08 2.0883759e-09 0.0000000e+00 
3.3525414e-08 6.8278001e-09 0.0000000e+00 
1.0220647e-08 -1.1629890e-09 0.0000000e+00 
1.4627671e-08 1.2651035e-09 0.0000000e+00 
0.0000000e+00 0.0000000e+00 0.0000000e+00 
1.1942234e-08 2.2701589e-09 0.0000000e+00 
4.3529917e-09 -4.6371559e-10 0.0000000e+00 
0.0000000e+00 0.0000000e+00 0.0000000e+00 
2.1169027e-09 -5.6279004e-10 0.0000000e+00 
3.1323413e-09 7.6010080e-11 0.0000000e+00 
4.3397526e-09 1.0178595e-09 0.0000000e+00 
0.0000000e+00 0.0000000e+00 0.0000000e+00 
0.0000000e+00 0.0000000e+00 0.0000000e+00 
0.0000000e+00 0.0000000e+00 0.0000000e+00 
0.0000000e+00 0.0000000e+00 0.0000000e+00 
0.0000000e+00 0.0000000e+00 0.0000000e+00 
CELL_DATA 38
FIELD FieldData 0
