# vtk DataFile Version 4.0
vtk output
ASCII
DATASET UNSTRUCTURED_GRID
POINTS 101 float
0.0000000e+00 0.0000000e+00 0.0000000e+00 
0.0000000e+00 2.5000000e-01 0.0000000e+00 
2.5000000e-01 0.0000000e+00 0.0000000e+00 
2.5000000e-01 2.5000000e-01 0.0000000e+00 
0.0000000e+00 5.0000000e-01 0.0000000e+00 
5.0000000e-01 0.0000000e+00 0.0000000e+00 
3.5416666e-01 5.0558227e-01 0.0000000e+00 
6.0416669e-01 2.5558227e-01 0.0000000e+00 
0.0000000e+00 7.5000000e-01 0.0000000e+00 
7.5000000e-01 0.0000000e+00 0.0000000e+00 
2.5000000e-01 7.5000000e-01 0.0000000e+00 
7.0833331e-01 5.1116455e-01 0.0000000e+00 
8.5416669e-01 2.5558227e-01 0.0000000e+00 
6.0416669e-01 7.5558227e-01 0.0000000e+00 
0.0000000e+00 1.0000000e+00 0.0000000e+00 
1.0000000e+00 0.0000000e+00 0.0000000e+00 
2.5000000e-01 1.0000000e+00 0.0000000e+00 
9.7916669e-01 5.3907591e-01 0.0000000e+00 
5.0000000e-01 1.0000000e+00 0.0000000e+00 
8.5416669e-01 7.5558227e-01 0.0000000e+00 
1.1250000e+00 2.8349364e-01 0.0000000e+00 
7.5000000e-01 1.0000000e+00 0.0000000e+00 
1.2500000e+00 0.0000000e+00 0.0000000e+00 
1.1250000e+00 7.8349364e-01 0.0000000e+00 
1.2500000e+00 5.6698728e-01 0.0000000e+00 
1.3750000e+00 2.8349364e-01 0.0000000e+00 
1.0000000e+00 1.0000000e+00 0.0000000e+00 
1.5000000e+00 0.0000000e+00 0.0000000e+00 
1.3750000e+00 7.8349364e-01 0.0000000e+00 
1.2500000e+00 1.0000000e+00 0.0000000e+00 
1.5000000e+00 5.6698728e-01 0.0000000e+00 
1.6250000e+00 2.8349364e-01 0.0000000e+00 
1.7500000e+00 0.0000000e+00 0.0000000e+00 
1.5000000e+00 1.0000000e+00 0.0000000e+00 
1.6250000e+00 7.8349364e-01 0.0000000e+00 
1.7500000e+00 5.6698728e-01 0.0000000e+00 
1.8750000e+00 2.8349364e-01 0.0000000e+00 
2.0000000e+00 0.0000000e+00 0.0000000e+00 
1.7500000e+00 1.0000000e+00 0.0000000e+00 
1.8750000e+00 7.8349364e-01 0.0000000e+00 
2.0000000e+00 5.6698728e-01 0.0000000e+00 
2.1250000e+00 2.8349364e-01 0.0000000e+00 
2.0000000e+00 1.0000000e+00 0.0000000e+00 
2.2500000e+00 0.0000000e+00 0.0000000e+00 
2.1250000e+00 7.8349364e-01 0.0000000e+00 
2.2500000e+00 5.6698728e-01 0.0000000e+00 
2.3750000e+00 2.8349364e-01 0.0000000e+00 
2.2500000e+00 1.0000000e+00 0.0000000e+00 
2.5000000e+00 0.0000000e+00 0.0000000e+00 
2.3750000e+00 7.8349364e-01 0.0000000e+00 
2.5000000e+00 5.6698728e-01 0.0000000e+00 
2.6250000e+00 2.8349364e-01 0.0000000e+00 
2.5000000e+00 1.0000000e+00 0.0000000e+00 
2.6250000e+00 7.8349364e-01 0.0000000e+00 
2.7500000e+00 0.0000000e+00 0.0000000e+00 
2.7500000e+00 5.6698728e-01 0.0000000e+00 
2.8750000e+00 2.8349364e-01 0.0000000e+00 
2.7500000e+00 1.0000000e+00 0.0000000e+00 
2.8750000e+00 7.8349364e-01 0.0000000e+00 
3.0000000e+00 0.0000000e+00 0.0000000e+00 
3.0000000e+00 5.0000000e-01 0.0000000e+00 
3.1250000e+00 2.1650635e-01 0.0000000e+00 
3.0000000e+00 1.0000000e+00 0.0000000e+00 
3.1250000e+00 7.1650636e-01 0.0000000e+00 
3.2500000e+00 0.0000000e+00 0.0000000e+00 
3.2500000e+00 4.3301269e-01 0.0000000e+00 
3.3750000e+00 2.1650635e-01 0.0000000e+00 
3.2500000e+00 1.0000000e+00 0.0000000e+00 
3.3750000e+00 7.1650636e-01 0.0000000e+00 
3.5000000e+00 0.0000000e+00 0.0000000e+00 
3.5000000e+00 4.3301269e-01 0.0000000e+00 
3.6250000e+00 2.1650635e-01 0.0000000e+00 
3.5000000e+00 1.0000000e+00 0.0000000e+00 
3.6250000e+00 7.1650636e-01 0.0000000e+00 
3.7500000e+00 0.0000000e+00 0.0000000e+00 
3.7500000e+00 4.3301269e-01 0.0000000e+00 
3.8750000e+00 2.1650635e-01 0.0000000e+00 
3.7500000e+00 1.0000000e+00 0.0000000e+00 
3.8750000e+00 7.1650636e-01 0.0000000e+00 
4.0000000e+00 0.0000000e+00 0.0000000e+00 
4.0208335e+00 4.6092409e-01 0.0000000e+00 
4.0000000e+00 1.0000000e+00 0.0000000e+00 
4.1458335e+00 2.4441773e-01 0.0000000e+00 
4.1458335e+00 7.4441773e-01 0.0000000e+00 
4.2500000e+00 0.0000000e+00 0.0000000e+00 
4.2916665e+00 4.8883545e-01 0.0000000e+00 
4.2500000e+00 1.0000000e+00 0.0000000e+00 
4.3958335e+00 2.4441773e-01 0.0000000e+00 
4.3958335e+00 7.4441773e-01 0.0000000e+00 
4.5000000e+00 0.0000000e+00 0.0000000e+00 
4.5000000e+00 1.0000000e+00 0.0000000e+00 
4.6458335e+00 4.9441773e-01 0.0000000e+00 
4.7500000e+00 0.0000000e+00 0.0000000e+00 
4.7500000e+00 2.5000000e-01 0.0000000e+00 
4.7500000e+00 7.5000000e-01 0.0000000e+00 
4.7500000e+00 1.0000000e+00 0.0000000e+00 
5.0000000e+00 0.0000000e+00 0.0000000e+00 
5.0000000e+00 2.5000000e-01 0.0000000e+00 
5.0000000e+00 5.0000000e-01 0.0000000e+00 
5.0000000e+00 7.5000000e-01 0.0000000e+00 
5.0000000e+00 1.0000000e+00 0.0000000e+00 

CELLS 38 266
6 0 5 4 2 3 1
6 79 89 85 84 87 82
6 62 52 55 57 53 58
6 85 89 98 87 93 91
6 79 85 75 82 80 76
6 55 52 45 53 49 50
6 75 85 81 80 83 78
6 79 75 69 76 71 74
6 45 52 42 49 47 44
6 55 45 48 50 46 51
6 69 75 65 71 70 66
6 65 75 72 70 73 68
6 69 65 59 66 61 64
6 59 65 55 61 60 56
6 37 48 45 43 46 41
6 100 90 98 95 94 99
6 26 18 11 21 13 19
6 11 18 4 13 10 6
6 26 11 24 19 17 23
6 24 11 15 17 12 20
6 26 24 33 23 28 29
6 33 24 35 28 30 34
6 35 24 27 30 25 31
6 33 35 42 34 39 38
6 42 35 45 39 40 44
6 45 35 37 40 36 41
6 15 27 24 22 25 20
6 96 98 89 97 93 92
6 81 72 75 77 73 78
6 14 4 18 8 10 16
6 5 15 11 9 12 7
6 48 59 55 54 56 51
6 90 81 85 86 83 88
6 27 37 35 32 36 31
6 72 62 65 67 63 68
6 62 55 65 58 60 63
6 90 85 98 88 91 94
6 5 11 4 7 6 3

CELL_TYPES 38
22
22
22
22
22
22
22
22
22
22
22
22
22
22
22
22
22
22
22
22
22
22
22
22
22
22
22
22
22
22
22
22
22
22
22
22
22
22
POINT_DATA 101
FIELD FieldData 1
DISPLACEMENT 3 101  float
0.0000000e+00 0.0000000e+00 0.0000000e+00 
0.0000000e+00 0.0000000e+00 0.0000000e+00 
0.0000000e+00 0.0000000e+00 0.0000000e+00 
-2.0701950e-06 3.7359992e-08 0.0000000e+00 
0.0000000e+00 0.0000000e+00 0.0000000e+00 
0.0000000e+00 0.0000000e+00 0.0000000e+00 
-3.0608505e-06 1.1241422e-06 0.0000000e+00 
-9.4056968e-06 -6.6414782e-06 0.0000000e+00 
0.0000000e+00 0.0000000e+00 0.0000000e+00 
0.0000000e+00 0.0000000e+00 0.0000000e+00 
-9.2420680e-07 8.2619823e-07 0.0000000e+00 
-2.1585494e-05 -1.8979572e-05 0.0000000e+00 
-1.8087747e-05 -1.7969114e-05 0.0000000e+00 
-4.9837249e-06 7.0587512e-06 0.0000000e+00 
0.0000000e+00 0.0000000e+00 0.0000000e+00 
0.0000000e+00 0.0000000e+00 0.0000000e+00 
-1.9810984e-06 1.5226846e-06 0.0000000e+00 
-4.3799122e-05 -6.3810170e-05 0.0000000e+00 
-2.6165608e-06 9.4848792e-06 0.0000000e+00 
-3.0408895e-05 1.7488122e-05 0.0000000e+00 
-3.7989194e-05 -6.1510436e-05 0.0000000e+00 
4.3097072e-05 1.8227325e-05 0.0000000e+00 
0.0000000e+00 0.0000000e+00 0.0000000e+00 
-1.9363692e-04 -2.6423528e-04 0.0000000e+00 
-3.6817877e-05 -3.0419420e-04 0.0000000e+00 
-2.4076433e-05 -1.0902948e-04 0.0000000e+00 
1.6892560e-04 5.2116171e-05 0.0000000e+00 
0.0000000e+00 0.0000000e+00 0.0000000e+00 
-3.9478805e-04 -1.4928429e-03 0.0000000e+00 
3.9383915e-04 -1.1758750e-03 0.0000000e+00 
1.7843804e-05 -5.1068794e-04 0.0000000e+00 
2.9004059e-05 -1.0406887e-04 0.0000000e+00 
0.0000000e+00 0.0000000e+00 0.0000000e+00 
-6.6290530e-05 -5.4162312e-03 0.0000000e+00 
4.5974739e-04 -1.3343411e-03 0.0000000e+00 
3.5145589e-05 -2.3870527e-04 0.0000000e+00 
2.6953601e-05 -5.5235836e-05 0.0000000e+00 
0.0000000e+00 0.0000000e+00 0.0000000e+00 
-3.8701453e-04 -4.6084370e-04 0.0000000e+00 
1.1105384e-04 -1.4151883e-04 0.0000000e+00 
1.6252081e-05 -8.4296917e-05 0.0000000e+00 
5.4627644e-06 -3.5666850e-05 0.0000000e+00 
-4.9853297e-05 -1.0337587e-04 0.0000000e+00 
0.0000000e+00 0.0000000e+00 0.0000000e+00 
-3.1466978e-05 -1.1506274e-04 0.0000000e+00 
7.2082994e-06 -1.1951487e-04 0.0000000e+00 
1.1803506e-06 -4.1113421e-05 0.0000000e+00 
9.6751610e-05 -3.9297575e-04 0.0000000e+00 
0.0000000e+00 0.0000000e+00 0.0000000e+00 
-1.2545023e-04 -4.9634068e-04 0.0000000e+00 
1.3608596e-05 -1.7105351e-04 0.0000000e+00 
1.4179249e-05 -3.4866156e-05 0.0000000e+00 
-2.0921912e-05 -1.8042373e-03 0.0000000e+00 
1.5528509e-04 -4.4490938e-04 0.0000000e+00 
0.0000000e+00 0.0000000e+00 0.0000000e+00 
1.8466799e-05 -7.7340439e-05 0.0000000e+00 
1.2401195e-05 -1.6569076e-05 0.0000000e+00 
-1.3139704e-04 -1.5456189e-04 0.0000000e+00 
3.8294504e-05 -4.9345497e-05 0.0000000e+00 
0.0000000e+00 0.0000000e+00 0.0000000e+00 
1.0093258e-05 -1.4977085e-05 0.0000000e+00 
4.7964404e-06 -4.5788875e-06 0.0000000e+00 
-3.0308409e-05 -3.9423168e-05 0.0000000e+00 
1.4728748e-05 -9.2985829e-06 0.0000000e+00 
0.0000000e+00 0.0000000e+00 0.0000000e+00 
3.9746938e-06 -6.3618540e-06 0.0000000e+00 
2.3805997e-06 -1.6014684e-06 0.0000000e+00 
-1.2321443e-05 -1.5939968e-06 0.0000000e+00 
4.0314162e-06 -1.4610204e-07 0.0000000e+00 
0.0000000e+00 0.0000000e+00 0.0000000e+00 
1.4253862e-06 -6.9261176e-07 0.0000000e+00 
8.4868310e-07 -2.8344508e-07 0.0000000e+00 
-9.4873673e-07 1.2791197e-06 0.0000000e+00 
1.1784275e-06 2.4837240e-07 0.0000000e+00 
0.0000000e+00 0.0000000e+00 0.0000000e+00 
5.9214943e-07 -2.2133784e-07 0.0000000e+00 
3.0763067e-07 -8.5001979e-08 0.0000000e+00 
-1.6372326e-07 4.1491651e-07 0.0000000e+00 
3.5614178e-07 1.5617717e-07 0.0000000e+00 
0.0000000e+00 0.0000000e+00 0.0000000e+00 
1.8130851e-07 6.4526562e-09 0.0000000e+00 
2.0051758e-07 1.8333937e-07 0.0000000e+00 
9.9859633e-08 -1.0773753e-08 0.0000000e+00 
1.1202667e-07 3.5540463e-08 0.0000000e+00 
0.0000000e+00 0.0000000e+00 0.0000000e+00 
6.2237078e-08 4.0581813e-09 0.0000000e+00 
9.3237986e-08 3.6569190e-08 0.0000000e+00 
3.3639477e-08 -4.1189980e-09 0.0000000e+00 
4.2780375e-08 8.8480627e-09 0.0000000e+00 
0.0000000e+00 0.0000000e+00 0.0000000e+00 
3.8250167e-08 1.1733606e-08 0.0000000e+00 
1.2540307e-08 -5.4359850e-10 0.0000000e+00 
0.0000000e+00 0.0000000e+00 0.0000000e+00 
6.7139863e-09 -1.4644255e-09 0.0000000e+00 
9.1870289e-09 3.0751565e-10 0.0000000e+00 
1.4258275e-08 3.5498473e-09 0.0000000e+00 
0.0000000e+00 0.0000000e+00 0.0000000e+00 
0.0000000e+00 0.0000000e+00 0.0000000e+00 
0.0000000e+00 0.0000000e+00 0.0000000e+00 
0.0000000e+00 0.0000000e+00 0.0000000e+00 
0.0000000e+00 0.0000000e+00 0.0000000e+00 
CELL_DATA 38
FIELD FieldData 0
