# vtk DataFile Version 4.0
vtk output
ASCII
DATASET UNSTRUCTURED_GRID
POINTS 101 float
0.0000000e+00 0.0000000e+00 0.0000000e+00 
0.0000000e+00 2.5000000e-01 0.0000000e+00 
2.5000000e-01 0.0000000e+00 0.0000000e+00 
2.5000000e-01 2.5000000e-01 0.0000000e+00 
0.0000000e+00 5.0000000e-01 0.0000000e+00 
5.0000000e-01 0.0000000e+00 0.0000000e+00 
3.5416666e-01 5.0558227e-01 0.0000000e+00 
6.0416669e-01 2.5558227e-01 0.0000000e+00 
0.0000000e+00 7.5000000e-01 0.0000000e+00 
7.5000000e-01 0.0000000e+00 0.0000000e+00 
2.5000000e-01 7.5000000e-01 0.0000000e+00 
7.0833331e-01 5.1116455e-01 0.0000000e+00 
8.5416669e-01 2.5558227e-01 0.0000000e+00 
6.0416669e-01 7.5558227e-01 0.0000000e+00 
0.0000000e+00 1.0000000e+00 0.0000000e+00 
1.0000000e+00 0.0000000e+00 0.0000000e+00 
2.5000000e-01 1.0000000e+00 0.0000000e+00 
9.7916669e-01 5.3907591e-01 0.0000000e+00 
5.0000000e-01 1.0000000e+00 0.0000000e+00 
8.5416669e-01 7.5558227e-01 0.0000000e+00 
1.1250000e+00 2.8349364e-01 0.0000000e+00 
7.5000000e-01 1.0000000e+00 0.0000000e+00 
1.2500000e+00 0.0000000e+00 0.0000000e+00 
1.1250000e+00 7.8349364e-01 0.0000000e+00 
1.2500000e+00 5.6698728e-01 0.0000000e+00 
1.3750000e+00 2.8349364e-01 0.0000000e+00 
1.0000000e+00 1.0000000e+00 0.0000000e+00 
1.5000000e+00 0.0000000e+00 0.0000000e+00 
1.3750000e+00 7.8349364e-01 0.0000000e+00 
1.2500000e+00 1.0000000e+00 0.0000000e+00 
1.5000000e+00 5.6698728e-01 0.0000000e+00 
1.6250000e+00 2.8349364e-01 0.0000000e+00 
1.7500000e+00 0.0000000e+00 0.0000000e+00 
1.5000000e+00 1.0000000e+00 0.0000000e+00 
1.6250000e+00 7.8349364e-01 0.0000000e+00 
1.7500000e+00 5.6698728e-01 0.0000000e+00 
1.8750000e+00 2.8349364e-01 0.0000000e+00 
2.0000000e+00 0.0000000e+00 0.0000000e+00 
1.7500000e+00 1.0000000e+00 0.0000000e+00 
1.8750000e+00 7.8349364e-01 0.0000000e+00 
2.0000000e+00 5.6698728e-01 0.0000000e+00 
2.1250000e+00 2.8349364e-01 0.0000000e+00 
2.0000000e+00 1.0000000e+00 0.0000000e+00 
2.2500000e+00 0.0000000e+00 0.0000000e+00 
2.1250000e+00 7.8349364e-01 0.0000000e+00 
2.2500000e+00 5.6698728e-01 0.0000000e+00 
2.3750000e+00 2.8349364e-01 0.0000000e+00 
2.2500000e+00 1.0000000e+00 0.0000000e+00 
2.5000000e+00 0.0000000e+00 0.0000000e+00 
2.3750000e+00 7.8349364e-01 0.0000000e+00 
2.5000000e+00 5.6698728e-01 0.0000000e+00 
2.6250000e+00 2.8349364e-01 0.0000000e+00 
2.5000000e+00 1.0000000e+00 0.0000000e+00 
2.6250000e+00 7.8349364e-01 0.0000000e+00 
2.7500000e+00 0.0000000e+00 0.0000000e+00 
2.7500000e+00 5.6698728e-01 0.0000000e+00 
2.8750000e+00 2.8349364e-01 0.0000000e+00 
2.7500000e+00 1.0000000e+00 0.0000000e+00 
2.8750000e+00 7.8349364e-01 0.0000000e+00 
3.0000000e+00 0.0000000e+00 0.0000000e+00 
3.0000000e+00 5.0000000e-01 0.0000000e+00 
3.1250000e+00 2.1650635e-01 0.0000000e+00 
3.0000000e+00 1.0000000e+00 0.0000000e+00 
3.1250000e+00 7.1650636e-01 0.0000000e+00 
3.2500000e+00 0.0000000e+00 0.0000000e+00 
3.2500000e+00 4.3301269e-01 0.0000000e+00 
3.3750000e+00 2.1650635e-01 0.0000000e+00 
3.2500000e+00 1.0000000e+00 0.0000000e+00 
3.3750000e+00 7.1650636e-01 0.0000000e+00 
3.5000000e+00 0.0000000e+00 0.0000000e+00 
3.5000000e+00 4.3301269e-01 0.0000000e+00 
3.6250000e+00 2.1650635e-01 0.0000000e+00 
3.5000000e+00 1.0000000e+00 0.0000000e+00 
3.6250000e+00 7.1650636e-01 0.0000000e+00 
3.7500000e+00 0.0000000e+00 0.0000000e+00 
3.7500000e+00 4.3301269e-01 0.0000000e+00 
3.8750000e+00 2.1650635e-01 0.0000000e+00 
3.7500000e+00 1.0000000e+00 0.0000000e+00 
3.8750000e+00 7.1650636e-01 0.0000000e+00 
4.0000000e+00 0.0000000e+00 0.0000000e+00 
4.0208335e+00 4.6092409e-01 0.0000000e+00 
4.0000000e+00 1.0000000e+00 0.0000000e+00 
4.1458335e+00 2.4441773e-01 0.0000000e+00 
4.1458335e+00 7.4441773e-01 0.0000000e+00 
4.2500000e+00 0.0000000e+00 0.0000000e+00 
4.2916665e+00 4.8883545e-01 0.0000000e+00 
4.2500000e+00 1.0000000e+00 0.0000000e+00 
4.3958335e+00 2.4441773e-01 0.0000000e+00 
4.3958335e+00 7.4441773e-01 0.0000000e+00 
4.5000000e+00 0.0000000e+00 0.0000000e+00 
4.5000000e+00 1.0000000e+00 0.0000000e+00 
4.6458335e+00 4.9441773e-01 0.0000000e+00 
4.7500000e+00 0.0000000e+00 0.0000000e+00 
4.7500000e+00 2.5000000e-01 0.0000000e+00 
4.7500000e+00 7.5000000e-01 0.0000000e+00 
4.7500000e+00 1.0000000e+00 0.0000000e+00 
5.0000000e+00 0.0000000e+00 0.0000000e+00 
5.0000000e+00 2.5000000e-01 0.0000000e+00 
5.0000000e+00 5.0000000e-01 0.0000000e+00 
5.0000000e+00 7.5000000e-01 0.0000000e+00 
5.0000000e+00 1.0000000e+00 0.0000000e+00 

CELLS 38 266
6 0 5 4 2 3 1
6 79 89 85 84 87 82
6 62 52 55 57 53 58
6 85 89 98 87 93 91
6 79 85 75 82 80 76
6 55 52 45 53 49 50
6 75 85 81 80 83 78
6 79 75 69 76 71 74
6 45 52 42 49 47 44
6 55 45 48 50 46 51
6 69 75 65 71 70 66
6 65 75 72 70 73 68
6 69 65 59 66 61 64
6 59 65 55 61 60 56
6 37 48 45 43 46 41
6 100 90 98 95 94 99
6 26 18 11 21 13 19
6 11 18 4 13 10 6
6 26 11 24 19 17 23
6 24 11 15 17 12 20
6 26 24 33 23 28 29
6 33 24 35 28 30 34
6 35 24 27 30 25 31
6 33 35 42 34 39 38
6 42 35 45 39 40 44
6 45 35 37 40 36 41
6 15 27 24 22 25 20
6 96 98 89 97 93 92
6 81 72 75 77 73 78
6 14 4 18 8 10 16
6 5 15 11 9 12 7
6 48 59 55 54 56 51
6 90 81 85 86 83 88
6 27 37 35 32 36 31
6 72 62 65 67 63 68
6 62 55 65 58 60 63
6 90 85 98 88 91 94
6 5 11 4 7 6 3

CELL_TYPES 38
22
22
22
22
22
22
22
22
22
22
22
22
22
22
22
22
22
22
22
22
22
22
22
22
22
22
22
22
22
22
22
22
22
22
22
22
22
22
POINT_DATA 101
FIELD FieldData 1
DISPLACEMENT 3 101  float
0.0000000e+00 0.0000000e+00 0.0000000e+00 
0.0000000e+00 0.0000000e+00 0.0000000e+00 
0.0000000e+00 0.0000000e+00 0.0000000e+00 
-2.2236943e-11 -6.6682528e-12 0.0000000e+00 
0.0000000e+00 0.0000000e+00 0.0000000e+00 
0.0000000e+00 0.0000000e+00 0.0000000e+00 
-4.8495843e-11 -8.0851584e-12 0.0000000e+00 
-1.0269034e-10 -2.2487833e-11 0.0000000e+00 
0.0000000e+00 0.0000000e+00 0.0000000e+00 
0.0000000e+00 0.0000000e+00 0.0000000e+00 
-3.6033641e-11 3.4867020e-14 0.0000000e+00 
-2.2995507e-10 -1.1380446e-11 0.0000000e+00 
-2.7940125e-10 -5.9078797e-11 0.0000000e+00 
-1.7546357e-10 3.7636730e-12 0.0000000e+00 
0.0000000e+00 0.0000000e+00 0.0000000e+00 
0.0000000e+00 0.0000000e+00 0.0000000e+00 
-4.9189011e-11 1.1006889e-11 0.0000000e+00 
-6.4143135e-10 -5.1323612e-11 0.0000000e+00 
-1.3605718e-10 2.3711992e-11 0.0000000e+00 
-4.5557536e-10 7.8752846e-12 0.0000000e+00 
-8.5512109e-10 -1.5955187e-10 0.0000000e+00 
-3.7703418e-10 6.4774318e-11 0.0000000e+00 
0.0000000e+00 0.0000000e+00 0.0000000e+00 
-1.3328416e-09 7.2903489e-11 0.0000000e+00 
-1.8837991e-09 -9.5973490e-12 0.0000000e+00 
-2.3365305e-09 -3.9719730e-10 0.0000000e+00 
-9.6753583e-10 1.9183168e-10 0.0000000e+00 
0.0000000e+00 0.0000000e+00 0.0000000e+00 
-3.4181027e-09 2.1804678e-10 0.0000000e+00 
-2.5444407e-09 4.6388382e-10 0.0000000e+00 
-4.9130890e-09 -1.0937017e-10 0.0000000e+00 
-6.2880714e-09 -8.8623980e-10 0.0000000e+00 
0.0000000e+00 0.0000000e+00 0.0000000e+00 
-6.5616845e-09 1.3780709e-09 0.0000000e+00 
-8.9259924e-09 7.6391776e-10 0.0000000e+00 
-1.2872913e-08 9.8524511e-10 0.0000000e+00 
-1.7728530e-08 -1.8806552e-09 0.0000000e+00 
0.0000000e+00 0.0000000e+00 0.0000000e+00 
-1.7429935e-08 3.4039573e-09 0.0000000e+00 
-2.2395380e-08 2.3364939e-09 0.0000000e+00 
-3.2431100e-08 1.6752765e-09 0.0000000e+00 
-4.9246658e-08 -3.3994236e-09 0.0000000e+00 
-4.4793548e-08 1.0621689e-08 0.0000000e+00 
0.0000000e+00 0.0000000e+00 0.0000000e+00 
-5.7365732e-08 8.2150766e-09 0.0000000e+00 
-8.4619508e-08 1.9181940e-08 0.0000000e+00 
-1.4503604e-07 -9.1750625e-09 0.0000000e+00 
-1.2856708e-07 2.8547104e-08 0.0000000e+00 
0.0000000e+00 0.0000000e+00 0.0000000e+00 
-1.3502014e-07 3.7357911e-08 0.0000000e+00 
-2.2564521e-07 4.2620766e-08 0.0000000e+00 
-4.1742808e-07 -3.7397232e-08 0.0000000e+00 
-3.2522252e-07 1.5036048e-07 0.0000000e+00 
-3.3814038e-07 1.5716036e-07 0.0000000e+00 
0.0000000e+00 0.0000000e+00 0.0000000e+00 
-6.3529467e-07 7.4857965e-08 0.0000000e+00 
-1.2087808e-06 -1.6979793e-07 0.0000000e+00 
-5.0171559e-07 4.1902811e-07 0.0000000e+00 
-9.4164301e-07 6.2223324e-07 0.0000000e+00 
0.0000000e+00 0.0000000e+00 0.0000000e+00 
-1.9702536e-06 -1.0543750e-08 0.0000000e+00 
-3.2246703e-06 -1.3782609e-06 0.0000000e+00 
-5.2800425e-07 1.9776062e-06 0.0000000e+00 
-3.4208117e-06 1.4839222e-06 0.0000000e+00 
0.0000000e+00 0.0000000e+00 0.0000000e+00 
-6.1375313e-06 -4.7871358e-06 0.0000000e+00 
-7.7563909e-06 -4.5743382e-06 0.0000000e+00 
8.5853590e-06 2.9955509e-06 0.0000000e+00 
-1.2650766e-05 -5.5852138e-07 0.0000000e+00 
0.0000000e+00 0.0000000e+00 0.0000000e+00 
-1.5676102e-05 -1.2727570e-05 0.0000000e+00 
-1.8837711e-05 -2.0308289e-05 0.0000000e+00 
2.6842352e-05 -2.1831827e-06 0.0000000e+00 
-4.2511154e-05 -2.5888346e-05 0.0000000e+00 
0.0000000e+00 0.0000000e+00 0.0000000e+00 
-3.8858965e-05 -8.1410988e-05 0.0000000e+00 
-2.2513244e-05 -4.9415819e-05 0.0000000e+00 
1.3888734e-04 -8.5327338e-05 0.0000000e+00 
-1.4068192e-04 -1.9080572e-04 0.0000000e+00 
0.0000000e+00 0.0000000e+00 0.0000000e+00 
-7.1033013e-05 -1.9662897e-04 0.0000000e+00 
2.5691348e-04 -9.2910271e-04 0.0000000e+00 
-1.6421840e-05 -8.5271575e-05 0.0000000e+00 
-2.1802727e-04 -9.1192621e-04 0.0000000e+00 
0.0000000e+00 0.0000000e+00 0.0000000e+00 
4.1688974e-05 -3.5833952e-04 0.0000000e+00 
1.2485079e-05 -3.7381572e-03 0.0000000e+00 
3.0476187e-05 -9.3778799e-05 0.0000000e+00 
2.8516728e-04 -6.2132470e-04 0.0000000e+00 
0.0000000e+00 0.0000000e+00 0.0000000e+00 
-3.0984508e-04 -3.5460433e-04 0.0000000e+00 
7.1393762e-05 -7.3061761e-05 0.0000000e+00 
0.0000000e+00 0.0000000e+00 0.0000000e+00 
1.8908873e-05 -2.3946091e-05 0.0000000e+00 
2.7372320e-05 2.4776262e-05 0.0000000e+00 
-1.2683443e-04 -1.9310472e-05 0.0000000e+00 
0.0000000e+00 0.0000000e+00 0.0000000e+00 
0.0000000e+00 0.0000000e+00 0.0000000e+00 
0.0000000e+00 0.0000000e+00 0.0000000e+00 
0.0000000e+00 0.0000000e+00 0.0000000e+00 
0.0000000e+00 0.0000000e+00 0.0000000e+00 
CELL_DATA 38
FIELD FieldData 0
