# vtk DataFile Version 4.0
vtk output
ASCII
DATASET UNSTRUCTURED_GRID
POINTS 101 float
0.0000000e+00 0.0000000e+00 0.0000000e+00 
0.0000000e+00 2.5000000e-01 0.0000000e+00 
2.5000000e-01 0.0000000e+00 0.0000000e+00 
2.5000000e-01 2.5000000e-01 0.0000000e+00 
0.0000000e+00 5.0000000e-01 0.0000000e+00 
5.0000000e-01 0.0000000e+00 0.0000000e+00 
3.5416666e-01 5.0558227e-01 0.0000000e+00 
6.0416669e-01 2.5558227e-01 0.0000000e+00 
0.0000000e+00 7.5000000e-01 0.0000000e+00 
7.5000000e-01 0.0000000e+00 0.0000000e+00 
2.5000000e-01 7.5000000e-01 0.0000000e+00 
7.0833331e-01 5.1116455e-01 0.0000000e+00 
8.5416669e-01 2.5558227e-01 0.0000000e+00 
6.0416669e-01 7.5558227e-01 0.0000000e+00 
0.0000000e+00 1.0000000e+00 0.0000000e+00 
1.0000000e+00 0.0000000e+00 0.0000000e+00 
2.5000000e-01 1.0000000e+00 0.0000000e+00 
9.7916669e-01 5.3907591e-01 0.0000000e+00 
5.0000000e-01 1.0000000e+00 0.0000000e+00 
8.5416669e-01 7.5558227e-01 0.0000000e+00 
1.1250000e+00 2.8349364e-01 0.0000000e+00 
7.5000000e-01 1.0000000e+00 0.0000000e+00 
1.2500000e+00 0.0000000e+00 0.0000000e+00 
1.1250000e+00 7.8349364e-01 0.0000000e+00 
1.2500000e+00 5.6698728e-01 0.0000000e+00 
1.3750000e+00 2.8349364e-01 0.0000000e+00 
1.0000000e+00 1.0000000e+00 0.0000000e+00 
1.5000000e+00 0.0000000e+00 0.0000000e+00 
1.3750000e+00 7.8349364e-01 0.0000000e+00 
1.2500000e+00 1.0000000e+00 0.0000000e+00 
1.5000000e+00 5.6698728e-01 0.0000000e+00 
1.6250000e+00 2.8349364e-01 0.0000000e+00 
1.7500000e+00 0.0000000e+00 0.0000000e+00 
1.5000000e+00 1.0000000e+00 0.0000000e+00 
1.6250000e+00 7.8349364e-01 0.0000000e+00 
1.7500000e+00 5.6698728e-01 0.0000000e+00 
1.8750000e+00 2.8349364e-01 0.0000000e+00 
2.0000000e+00 0.0000000e+00 0.0000000e+00 
1.7500000e+00 1.0000000e+00 0.0000000e+00 
1.8750000e+00 7.8349364e-01 0.0000000e+00 
2.0000000e+00 5.6698728e-01 0.0000000e+00 
2.1250000e+00 2.8349364e-01 0.0000000e+00 
2.0000000e+00 1.0000000e+00 0.0000000e+00 
2.2500000e+00 0.0000000e+00 0.0000000e+00 
2.1250000e+00 7.8349364e-01 0.0000000e+00 
2.2500000e+00 5.6698728e-01 0.0000000e+00 
2.3750000e+00 2.8349364e-01 0.0000000e+00 
2.2500000e+00 1.0000000e+00 0.0000000e+00 
2.5000000e+00 0.0000000e+00 0.0000000e+00 
2.3750000e+00 7.8349364e-01 0.0000000e+00 
2.5000000e+00 5.6698728e-01 0.0000000e+00 
2.6250000e+00 2.8349364e-01 0.0000000e+00 
2.5000000e+00 1.0000000e+00 0.0000000e+00 
2.6250000e+00 7.8349364e-01 0.0000000e+00 
2.7500000e+00 0.0000000e+00 0.0000000e+00 
2.7500000e+00 5.6698728e-01 0.0000000e+00 
2.8750000e+00 2.8349364e-01 0.0000000e+00 
2.7500000e+00 1.0000000e+00 0.0000000e+00 
2.8750000e+00 7.8349364e-01 0.0000000e+00 
3.0000000e+00 0.0000000e+00 0.0000000e+00 
3.0000000e+00 5.0000000e-01 0.0000000e+00 
3.1250000e+00 2.1650635e-01 0.0000000e+00 
3.0000000e+00 1.0000000e+00 0.0000000e+00 
3.1250000e+00 7.1650636e-01 0.0000000e+00 
3.2500000e+00 0.0000000e+00 0.0000000e+00 
3.2500000e+00 4.3301269e-01 0.0000000e+00 
3.3750000e+00 2.1650635e-01 0.0000000e+00 
3.2500000e+00 1.0000000e+00 0.0000000e+00 
3.3750000e+00 7.1650636e-01 0.0000000e+00 
3.5000000e+00 0.0000000e+00 0.0000000e+00 
3.5000000e+00 4.3301269e-01 0.0000000e+00 
3.6250000e+00 2.1650635e-01 0.0000000e+00 
3.5000000e+00 1.0000000e+00 0.0000000e+00 
3.6250000e+00 7.1650636e-01 0.0000000e+00 
3.7500000e+00 0.0000000e+00 0.0000000e+00 
3.7500000e+00 4.3301269e-01 0.0000000e+00 
3.8750000e+00 2.1650635e-01 0.0000000e+00 
3.7500000e+00 1.0000000e+00 0.0000000e+00 
3.8750000e+00 7.1650636e-01 0.0000000e+00 
4.0000000e+00 0.0000000e+00 0.0000000e+00 
4.0208335e+00 4.6092409e-01 0.0000000e+00 
4.0000000e+00 1.0000000e+00 0.0000000e+00 
4.1458335e+00 2.4441773e-01 0.0000000e+00 
4.1458335e+00 7.4441773e-01 0.0000000e+00 
4.2500000e+00 0.0000000e+00 0.0000000e+00 
4.2916665e+00 4.8883545e-01 0.0000000e+00 
4.2500000e+00 1.0000000e+00 0.0000000e+00 
4.3958335e+00 2.4441773e-01 0.0000000e+00 
4.3958335e+00 7.4441773e-01 0.0000000e+00 
4.5000000e+00 0.0000000e+00 0.0000000e+00 
4.5000000e+00 1.0000000e+00 0.0000000e+00 
4.6458335e+00 4.9441773e-01 0.0000000e+00 
4.7500000e+00 0.0000000e+00 0.0000000e+00 
4.7500000e+00 2.5000000e-01 0.0000000e+00 
4.7500000e+00 7.5000000e-01 0.0000000e+00 
4.7500000e+00 1.0000000e+00 0.0000000e+00 
5.0000000e+00 0.0000000e+00 0.0000000e+00 
5.0000000e+00 2.5000000e-01 0.0000000e+00 
5.0000000e+00 5.0000000e-01 0.0000000e+00 
5.0000000e+00 7.5000000e-01 0.0000000e+00 
5.0000000e+00 1.0000000e+00 0.0000000e+00 

CELLS 38 266
6 0 5 4 2 3 1
6 79 89 85 84 87 82
6 62 52 55 57 53 58
6 85 89 98 87 93 91
6 79 85 75 82 80 76
6 55 52 45 53 49 50
6 75 85 81 80 83 78
6 79 75 69 76 71 74
6 45 52 42 49 47 44
6 55 45 48 50 46 51
6 69 75 65 71 70 66
6 65 75 72 70 73 68
6 69 65 59 66 61 64
6 59 65 55 61 60 56
6 37 48 45 43 46 41
6 100 90 98 95 94 99
6 26 18 11 21 13 19
6 11 18 4 13 10 6
6 26 11 24 19 17 23
6 24 11 15 17 12 20
6 26 24 33 23 28 29
6 33 24 35 28 30 34
6 35 24 27 30 25 31
6 33 35 42 34 39 38
6 42 35 45 39 40 44
6 45 35 37 40 36 41
6 15 27 24 22 25 20
6 96 98 89 97 93 92
6 81 72 75 77 73 78
6 14 4 18 8 10 16
6 5 15 11 9 12 7
6 48 59 55 54 56 51
6 90 81 85 86 83 88
6 27 37 35 32 36 31
6 72 62 65 67 63 68
6 62 55 65 58 60 63
6 90 85 98 88 91 94
6 5 11 4 7 6 3

CELL_TYPES 38
22
22
22
22
22
22
22
22
22
22
22
22
22
22
22
22
22
22
22
22
22
22
22
22
22
22
22
22
22
22
22
22
22
22
22
22
22
22
POINT_DATA 101
FIELD FieldData 1
DISPLACEMENT 3 101  float
0.0000000e+00 0.0000000e+00 0.0000000e+00 
0.0000000e+00 0.0000000e+00 0.0000000e+00 
0.0000000e+00 0.0000000e+00 0.0000000e+00 
-1.2395015e-05 6.3112475e-06 0.0000000e+00 
0.0000000e+00 0.0000000e+00 0.0000000e+00 
0.0000000e+00 0.0000000e+00 0.0000000e+00 
-1.7282051e-05 2.5500616e-05 0.0000000e+00 
-5.3502488e-05 1.0851317e-05 0.0000000e+00 
0.0000000e+00 0.0000000e+00 0.0000000e+00 
0.0000000e+00 0.0000000e+00 0.0000000e+00 
-5.8075318e-07 2.3884471e-05 0.0000000e+00 
-5.7590609e-05 3.6242589e-05 0.0000000e+00 
-1.1312855e-04 -9.5300484e-06 0.0000000e+00 
3.1072004e-06 5.3642842e-05 0.0000000e+00 
0.0000000e+00 0.0000000e+00 0.0000000e+00 
0.0000000e+00 0.0000000e+00 0.0000000e+00 
-2.3699336e-06 2.2217173e-05 0.0000000e+00 
-1.1970712e-04 -1.5092029e-05 0.0000000e+00 
1.2614313e-05 4.7321460e-05 0.0000000e+00 
1.3657015e-05 3.8378963e-05 0.0000000e+00 
-2.2096829e-04 -8.7185384e-05 0.0000000e+00 
7.8262987e-05 4.4018478e-05 0.0000000e+00 
0.0000000e+00 0.0000000e+00 0.0000000e+00 
5.1786010e-05 -7.5393880e-05 0.0000000e+00 
-2.1148275e-04 -2.0956759e-04 0.0000000e+00 
-3.4673588e-04 -2.6361478e-04 0.0000000e+00 
1.8710944e-04 -1.5666459e-05 0.0000000e+00 
0.0000000e+00 0.0000000e+00 0.0000000e+00 
6.2806699e-05 -4.0010331e-04 0.0000000e+00 
4.2907504e-04 -2.3012204e-04 0.0000000e+00 
-3.7322153e-04 -6.5255980e-04 0.0000000e+00 
-4.6595954e-04 -5.9992698e-04 0.0000000e+00 
0.0000000e+00 0.0000000e+00 0.0000000e+00 
7.6652970e-04 -7.4691640e-04 0.0000000e+00 
1.1248977e-06 -1.1763934e-03 0.0000000e+00 
-5.6397164e-04 -1.5480645e-03 0.0000000e+00 
-4.6365205e-04 -1.0690937e-03 0.0000000e+00 
0.0000000e+00 0.0000000e+00 0.0000000e+00 
1.1796469e-03 -2.0216254e-03 0.0000000e+00 
-1.9127018e-04 -2.9344019e-03 0.0000000e+00 
-4.8332132e-04 -2.8353911e-03 0.0000000e+00 
-2.0476850e-04 -1.4320876e-03 0.0000000e+00 
1.2257063e-03 -5.2873194e-03 0.0000000e+00 
0.0000000e+00 0.0000000e+00 0.0000000e+00 
-1.7359943e-04 -5.1685120e-03 0.0000000e+00 
4.6426907e-05 -3.4574834e-03 0.0000000e+00 
1.7996578e-04 -1.3896495e-03 0.0000000e+00 
-1.7184601e-04 -8.2340920e-03 0.0000000e+00 
0.0000000e+00 0.0000000e+00 0.0000000e+00 
4.2803859e-04 -4.4978536e-03 0.0000000e+00 
4.4325474e-04 -2.5174825e-03 0.0000000e+00 
3.2153263e-04 -1.0548074e-03 0.0000000e+00 
-1.1802590e-03 -3.1209220e-03 0.0000000e+00 
4.3946162e-05 -2.2256335e-03 0.0000000e+00 
0.0000000e+00 0.0000000e+00 0.0000000e+00 
3.4011755e-04 -1.6009115e-03 0.0000000e+00 
2.6962426e-04 -7.7734864e-04 0.0000000e+00 
-6.2345096e-04 -1.9099583e-03 0.0000000e+00 
-1.2091974e-04 -1.6866715e-03 0.0000000e+00 
0.0000000e+00 0.0000000e+00 0.0000000e+00 
2.0625685e-04 -1.1814205e-03 0.0000000e+00 
2.1323352e-04 -4.7780006e-04 0.0000000e+00 
-2.1745698e-04 -2.2203070e-03 0.0000000e+00 
-3.8496226e-05 -1.6860103e-03 0.0000000e+00 
0.0000000e+00 0.0000000e+00 0.0000000e+00 
2.4604597e-04 -8.8125805e-04 0.0000000e+00 
2.2520506e-04 -3.5649759e-04 0.0000000e+00 
-3.9333402e-04 -2.7447285e-03 0.0000000e+00 
1.5950276e-04 -1.2920863e-03 0.0000000e+00 
0.0000000e+00 0.0000000e+00 0.0000000e+00 
2.9892975e-04 -5.7379872e-04 0.0000000e+00 
2.1166736e-04 -2.2079679e-04 0.0000000e+00 
-5.4793234e-04 -9.8232517e-04 0.0000000e+00 
8.7117754e-05 -5.5800920e-04 0.0000000e+00 
0.0000000e+00 0.0000000e+00 0.0000000e+00 
2.4723273e-04 -2.7946167e-04 0.0000000e+00 
1.6178163e-04 -1.0609667e-04 0.0000000e+00 
-3.7772077e-04 -3.8279645e-04 0.0000000e+00 
3.8410624e-05 -1.9162444e-04 0.0000000e+00 
0.0000000e+00 0.0000000e+00 0.0000000e+00 
1.4238709e-04 -7.9243189e-05 0.0000000e+00 
-2.1304829e-04 -9.8293036e-05 0.0000000e+00 
1.0340544e-04 -3.1637373e-05 0.0000000e+00 
-7.3147675e-07 -1.8168575e-05 0.0000000e+00 
0.0000000e+00 0.0000000e+00 0.0000000e+00 
6.7644796e-05 3.2959792e-06 0.0000000e+00 
-1.0573686e-04 5.3514859e-06 0.0000000e+00 
5.4984426e-05 -5.1335707e-07 0.0000000e+00 
-1.5209398e-06 3.3606506e-05 0.0000000e+00 
0.0000000e+00 0.0000000e+00 0.0000000e+00 
-3.0355986e-05 3.8237784e-05 0.0000000e+00 
2.1359410e-05 2.2610757e-05 0.0000000e+00 
0.0000000e+00 0.0000000e+00 0.0000000e+00 
1.4548917e-05 6.5234331e-06 0.0000000e+00 
-9.1149036e-07 2.5204583e-05 0.0000000e+00 
-4.7411863e-06 2.1913749e-05 0.0000000e+00 
0.0000000e+00 0.0000000e+00 0.0000000e+00 
0.0000000e+00 0.0000000e+00 0.0000000e+00 
0.0000000e+00 0.0000000e+00 0.0000000e+00 
0.0000000e+00 0.0000000e+00 0.0000000e+00 
0.0000000e+00 0.0000000e+00 0.0000000e+00 
CELL_DATA 38
FIELD FieldData 0
