# vtk DataFile Version 4.0
vtk output
ASCII
DATASET UNSTRUCTURED_GRID
POINTS 101 float
0.0000000e+00 0.0000000e+00 0.0000000e+00 
0.0000000e+00 2.5000000e-01 0.0000000e+00 
2.5000000e-01 0.0000000e+00 0.0000000e+00 
2.5000000e-01 2.5000000e-01 0.0000000e+00 
0.0000000e+00 5.0000000e-01 0.0000000e+00 
5.0000000e-01 0.0000000e+00 0.0000000e+00 
3.5416666e-01 5.0558227e-01 0.0000000e+00 
6.0416669e-01 2.5558227e-01 0.0000000e+00 
0.0000000e+00 7.5000000e-01 0.0000000e+00 
7.5000000e-01 0.0000000e+00 0.0000000e+00 
2.5000000e-01 7.5000000e-01 0.0000000e+00 
7.0833331e-01 5.1116455e-01 0.0000000e+00 
8.5416669e-01 2.5558227e-01 0.0000000e+00 
6.0416669e-01 7.5558227e-01 0.0000000e+00 
0.0000000e+00 1.0000000e+00 0.0000000e+00 
1.0000000e+00 0.0000000e+00 0.0000000e+00 
2.5000000e-01 1.0000000e+00 0.0000000e+00 
9.7916669e-01 5.3907591e-01 0.0000000e+00 
5.0000000e-01 1.0000000e+00 0.0000000e+00 
8.5416669e-01 7.5558227e-01 0.0000000e+00 
1.1250000e+00 2.8349364e-01 0.0000000e+00 
7.5000000e-01 1.0000000e+00 0.0000000e+00 
1.2500000e+00 0.0000000e+00 0.0000000e+00 
1.1250000e+00 7.8349364e-01 0.0000000e+00 
1.2500000e+00 5.6698728e-01 0.0000000e+00 
1.3750000e+00 2.8349364e-01 0.0000000e+00 
1.0000000e+00 1.0000000e+00 0.0000000e+00 
1.5000000e+00 0.0000000e+00 0.0000000e+00 
1.3750000e+00 7.8349364e-01 0.0000000e+00 
1.2500000e+00 1.0000000e+00 0.0000000e+00 
1.5000000e+00 5.6698728e-01 0.0000000e+00 
1.6250000e+00 2.8349364e-01 0.0000000e+00 
1.7500000e+00 0.0000000e+00 0.0000000e+00 
1.5000000e+00 1.0000000e+00 0.0000000e+00 
1.6250000e+00 7.8349364e-01 0.0000000e+00 
1.7500000e+00 5.6698728e-01 0.0000000e+00 
1.8750000e+00 2.8349364e-01 0.0000000e+00 
2.0000000e+00 0.0000000e+00 0.0000000e+00 
1.7500000e+00 1.0000000e+00 0.0000000e+00 
1.8750000e+00 7.8349364e-01 0.0000000e+00 
2.0000000e+00 5.6698728e-01 0.0000000e+00 
2.1250000e+00 2.8349364e-01 0.0000000e+00 
2.0000000e+00 1.0000000e+00 0.0000000e+00 
2.2500000e+00 0.0000000e+00 0.0000000e+00 
2.1250000e+00 7.8349364e-01 0.0000000e+00 
2.2500000e+00 5.6698728e-01 0.0000000e+00 
2.3750000e+00 2.8349364e-01 0.0000000e+00 
2.2500000e+00 1.0000000e+00 0.0000000e+00 
2.5000000e+00 0.0000000e+00 0.0000000e+00 
2.3750000e+00 7.8349364e-01 0.0000000e+00 
2.5000000e+00 5.6698728e-01 0.0000000e+00 
2.6250000e+00 2.8349364e-01 0.0000000e+00 
2.5000000e+00 1.0000000e+00 0.0000000e+00 
2.6250000e+00 7.8349364e-01 0.0000000e+00 
2.7500000e+00 0.0000000e+00 0.0000000e+00 
2.7500000e+00 5.6698728e-01 0.0000000e+00 
2.8750000e+00 2.8349364e-01 0.0000000e+00 
2.7500000e+00 1.0000000e+00 0.0000000e+00 
2.8750000e+00 7.8349364e-01 0.0000000e+00 
3.0000000e+00 0.0000000e+00 0.0000000e+00 
3.0000000e+00 5.0000000e-01 0.0000000e+00 
3.1250000e+00 2.1650635e-01 0.0000000e+00 
3.0000000e+00 1.0000000e+00 0.0000000e+00 
3.1250000e+00 7.1650636e-01 0.0000000e+00 
3.2500000e+00 0.0000000e+00 0.0000000e+00 
3.2500000e+00 4.3301269e-01 0.0000000e+00 
3.3750000e+00 2.1650635e-01 0.0000000e+00 
3.2500000e+00 1.0000000e+00 0.0000000e+00 
3.3750000e+00 7.1650636e-01 0.0000000e+00 
3.5000000e+00 0.0000000e+00 0.0000000e+00 
3.5000000e+00 4.3301269e-01 0.0000000e+00 
3.6250000e+00 2.1650635e-01 0.0000000e+00 
3.5000000e+00 1.0000000e+00 0.0000000e+00 
3.6250000e+00 7.1650636e-01 0.0000000e+00 
3.7500000e+00 0.0000000e+00 0.0000000e+00 
3.7500000e+00 4.3301269e-01 0.0000000e+00 
3.8750000e+00 2.1650635e-01 0.0000000e+00 
3.7500000e+00 1.0000000e+00 0.0000000e+00 
3.8750000e+00 7.1650636e-01 0.0000000e+00 
4.0000000e+00 0.0000000e+00 0.0000000e+00 
4.0208335e+00 4.6092409e-01 0.0000000e+00 
4.0000000e+00 1.0000000e+00 0.0000000e+00 
4.1458335e+00 2.4441773e-01 0.0000000e+00 
4.1458335e+00 7.4441773e-01 0.0000000e+00 
4.2500000e+00 0.0000000e+00 0.0000000e+00 
4.2916665e+00 4.8883545e-01 0.0000000e+00 
4.2500000e+00 1.0000000e+00 0.0000000e+00 
4.3958335e+00 2.4441773e-01 0.0000000e+00 
4.3958335e+00 7.4441773e-01 0.0000000e+00 
4.5000000e+00 0.0000000e+00 0.0000000e+00 
4.5000000e+00 1.0000000e+00 0.0000000e+00 
4.6458335e+00 4.9441773e-01 0.0000000e+00 
4.7500000e+00 0.0000000e+00 0.0000000e+00 
4.7500000e+00 2.5000000e-01 0.0000000e+00 
4.7500000e+00 7.5000000e-01 0.0000000e+00 
4.7500000e+00 1.0000000e+00 0.0000000e+00 
5.0000000e+00 0.0000000e+00 0.0000000e+00 
5.0000000e+00 2.5000000e-01 0.0000000e+00 
5.0000000e+00 5.0000000e-01 0.0000000e+00 
5.0000000e+00 7.5000000e-01 0.0000000e+00 
5.0000000e+00 1.0000000e+00 0.0000000e+00 

CELLS 38 266
6 0 5 4 2 3 1
6 79 89 85 84 87 82
6 62 52 55 57 53 58
6 85 89 98 87 93 91
6 79 85 75 82 80 76
6 55 52 45 53 49 50
6 75 85 81 80 83 78
6 79 75 69 76 71 74
6 45 52 42 49 47 44
6 55 45 48 50 46 51
6 69 75 65 71 70 66
6 65 75 72 70 73 68
6 69 65 59 66 61 64
6 59 65 55 61 60 56
6 37 48 45 43 46 41
6 100 90 98 95 94 99
6 26 18 11 21 13 19
6 11 18 4 13 10 6
6 26 11 24 19 17 23
6 24 11 15 17 12 20
6 26 24 33 23 28 29
6 33 24 35 28 30 34
6 35 24 27 30 25 31
6 33 35 42 34 39 38
6 42 35 45 39 40 44
6 45 35 37 40 36 41
6 15 27 24 22 25 20
6 96 98 89 97 93 92
6 81 72 75 77 73 78
6 14 4 18 8 10 16
6 5 15 11 9 12 7
6 48 59 55 54 56 51
6 90 81 85 86 83 88
6 27 37 35 32 36 31
6 72 62 65 67 63 68
6 62 55 65 58 60 63
6 90 85 98 88 91 94
6 5 11 4 7 6 3

CELL_TYPES 38
22
22
22
22
22
22
22
22
22
22
22
22
22
22
22
22
22
22
22
22
22
22
22
22
22
22
22
22
22
22
22
22
22
22
22
22
22
22
POINT_DATA 101
FIELD FieldData 1
DISPLACEMENT 3 101  float
0.0000000e+00 0.0000000e+00 0.0000000e+00 
0.0000000e+00 0.0000000e+00 0.0000000e+00 
0.0000000e+00 0.0000000e+00 0.0000000e+00 
-2.7021155e-05 -8.3900130e-05 0.0000000e+00 
0.0000000e+00 0.0000000e+00 0.0000000e+00 
0.0000000e+00 0.0000000e+00 0.0000000e+00 
-1.0271616e-04 -3.1284196e-04 0.0000000e+00 
1.3323700e-05 -7.0694237e-05 0.0000000e+00 
0.0000000e+00 0.0000000e+00 0.0000000e+00 
0.0000000e+00 0.0000000e+00 0.0000000e+00 
-3.2276512e-04 -7.2631915e-04 0.0000000e+00 
3.5084540e-05 -2.5265318e-04 0.0000000e+00 
2.5419264e-05 -5.5821358e-05 0.0000000e+00 
4.1301560e-04 -1.3875074e-03 0.0000000e+00 
0.0000000e+00 0.0000000e+00 0.0000000e+00 
0.0000000e+00 0.0000000e+00 0.0000000e+00 
3.8190169e-04 -1.3057649e-03 0.0000000e+00 
2.9779902e-05 -9.0346926e-05 0.0000000e+00 
-1.5545607e-04 -4.9470793e-03 0.0000000e+00 
1.4086576e-04 -1.8580681e-04 0.0000000e+00 
6.3641755e-06 -3.8714443e-05 0.0000000e+00 
-3.4872215e-04 -5.0874759e-04 0.0000000e+00 
0.0000000e+00 0.0000000e+00 0.0000000e+00 
-3.5239511e-05 -1.0255728e-04 0.0000000e+00 
1.1734923e-05 -1.2032784e-04 0.0000000e+00 
1.8147248e-06 -4.1738011e-05 0.0000000e+00 
-9.8666293e-05 -7.9555044e-05 0.0000000e+00 
0.0000000e+00 0.0000000e+00 0.0000000e+00 
-1.2781881e-04 -4.9324083e-04 0.0000000e+00 
8.5809865e-05 -3.8660038e-04 0.0000000e+00 
1.3917219e-05 -1.7022391e-04 0.0000000e+00 
1.4330829e-05 -3.5036323e-05 0.0000000e+00 
0.0000000e+00 0.0000000e+00 0.0000000e+00 
-2.0613970e-05 -1.8027977e-03 0.0000000e+00 
1.5494695e-04 -4.4452437e-04 0.0000000e+00 
1.6409796e-05 -7.7110999e-05 0.0000000e+00 
1.2608174e-05 -1.6103368e-05 0.0000000e+00 
0.0000000e+00 0.0000000e+00 0.0000000e+00 
-1.3268036e-04 -1.5504078e-04 0.0000000e+00 
4.0625204e-05 -4.8942438e-05 0.0000000e+00 
1.1770526e-05 -1.8795794e-05 0.0000000e+00 
6.3385191e-06 -5.3011704e-06 0.0000000e+00 
-3.5947654e-05 -4.0356892e-05 0.0000000e+00 
0.0000000e+00 0.0000000e+00 0.0000000e+00 
1.1678233e-05 -8.8315392e-06 0.0000000e+00 
6.3589728e-06 -5.8512042e-06 0.0000000e+00 
2.9993198e-06 -1.6233269e-06 0.0000000e+00 
-1.1607376e-05 -7.7786915e-08 0.0000000e+00 
0.0000000e+00 0.0000000e+00 0.0000000e+00 
2.1849960e-06 6.1115401e-07 0.0000000e+00 
2.0403290e-06 -2.1618821e-07 0.0000000e+00 
1.1108518e-06 -3.3393678e-07 0.0000000e+00 
4.1826493e-07 6.4821484e-07 0.0000000e+00 
7.5499435e-07 2.1382613e-07 0.0000000e+00 
0.0000000e+00 0.0000000e+00 0.0000000e+00 
5.4818008e-07 -2.4004001e-08 0.0000000e+00 
3.9574297e-07 -5.5153155e-08 0.0000000e+00 
3.1096889e-07 2.1547442e-07 0.0000000e+00 
2.7258446e-07 8.6287820e-08 0.0000000e+00 
0.0000000e+00 0.0000000e+00 0.0000000e+00 
2.1168825e-07 1.3756133e-08 0.0000000e+00 
1.2005317e-07 -1.5360902e-08 0.0000000e+00 
2.1529257e-07 8.6048203e-08 0.0000000e+00 
1.0928551e-07 2.1915074e-08 0.0000000e+00 
0.0000000e+00 0.0000000e+00 0.0000000e+00 
8.5349654e-08 9.2776791e-09 0.0000000e+00 
3.8839303e-08 -3.9227785e-09 0.0000000e+00 
9.0031101e-08 2.4899437e-08 0.0000000e+00 
4.4486882e-08 7.6190227e-09 0.0000000e+00 
0.0000000e+00 0.0000000e+00 0.0000000e+00 
3.0963751e-08 3.0837180e-10 0.0000000e+00 
1.3453155e-08 -1.9775710e-09 0.0000000e+00 
3.6662268e-08 8.0415576e-09 0.0000000e+00 
1.7730182e-08 1.8672948e-09 0.0000000e+00 
0.0000000e+00 0.0000000e+00 0.0000000e+00 
1.0835790e-08 5.0540211e-10 0.0000000e+00 
4.5180868e-09 -6.6993766e-10 0.0000000e+00 
1.4702185e-08 3.0128176e-09 0.0000000e+00 
7.0481616e-09 4.4746284e-10 0.0000000e+00 
0.0000000e+00 0.0000000e+00 0.0000000e+00 
3.7535823e-09 -2.1938056e-10 0.0000000e+00 
5.6295808e-09 1.0635689e-09 0.0000000e+00 
1.6428359e-09 -3.0644431e-10 0.0000000e+00 
2.5595976e-09 1.0148303e-10 0.0000000e+00 
0.0000000e+00 0.0000000e+00 0.0000000e+00 
1.3207037e-09 -2.4362493e-11 0.0000000e+00 
2.2045665e-09 3.9316173e-10 0.0000000e+00 
5.9058536e-10 -1.1602946e-10 0.0000000e+00 
9.9600650e-10 2.7458431e-11 0.0000000e+00 
0.0000000e+00 0.0000000e+00 0.0000000e+00 
7.9064427e-10 1.3576269e-10 0.0000000e+00 
2.8181132e-10 -4.5322527e-11 0.0000000e+00 
0.0000000e+00 0.0000000e+00 0.0000000e+00 
1.2991297e-10 -3.8218036e-11 0.0000000e+00 
2.0797004e-10 1.1996250e-12 0.0000000e+00 
2.8554389e-10 6.4073885e-11 0.0000000e+00 
0.0000000e+00 0.0000000e+00 0.0000000e+00 
0.0000000e+00 0.0000000e+00 0.0000000e+00 
0.0000000e+00 0.0000000e+00 0.0000000e+00 
0.0000000e+00 0.0000000e+00 0.0000000e+00 
0.0000000e+00 0.0000000e+00 0.0000000e+00 
CELL_DATA 38
FIELD FieldData 0
