# vtk DataFile Version 4.0
vtk output
ASCII
DATASET UNSTRUCTURED_GRID
POINTS 101 float
0.0000000e+00 0.0000000e+00 0.0000000e+00 
0.0000000e+00 2.5000000e-01 0.0000000e+00 
2.5000000e-01 0.0000000e+00 0.0000000e+00 
2.5000000e-01 2.5000000e-01 0.0000000e+00 
0.0000000e+00 5.0000000e-01 0.0000000e+00 
5.0000000e-01 0.0000000e+00 0.0000000e+00 
3.5416666e-01 5.0558227e-01 0.0000000e+00 
6.0416669e-01 2.5558227e-01 0.0000000e+00 
0.0000000e+00 7.5000000e-01 0.0000000e+00 
7.5000000e-01 0.0000000e+00 0.0000000e+00 
2.5000000e-01 7.5000000e-01 0.0000000e+00 
7.0833331e-01 5.1116455e-01 0.0000000e+00 
8.5416669e-01 2.5558227e-01 0.0000000e+00 
6.0416669e-01 7.5558227e-01 0.0000000e+00 
0.0000000e+00 1.0000000e+00 0.0000000e+00 
1.0000000e+00 0.0000000e+00 0.0000000e+00 
2.5000000e-01 1.0000000e+00 0.0000000e+00 
9.7916669e-01 5.3907591e-01 0.0000000e+00 
5.0000000e-01 1.0000000e+00 0.0000000e+00 
8.5416669e-01 7.5558227e-01 0.0000000e+00 
1.1250000e+00 2.8349364e-01 0.0000000e+00 
7.5000000e-01 1.0000000e+00 0.0000000e+00 
1.2500000e+00 0.0000000e+00 0.0000000e+00 
1.1250000e+00 7.8349364e-01 0.0000000e+00 
1.2500000e+00 5.6698728e-01 0.0000000e+00 
1.3750000e+00 2.8349364e-01 0.0000000e+00 
1.0000000e+00 1.0000000e+00 0.0000000e+00 
1.5000000e+00 0.0000000e+00 0.0000000e+00 
1.3750000e+00 7.8349364e-01 0.0000000e+00 
1.2500000e+00 1.0000000e+00 0.0000000e+00 
1.5000000e+00 5.6698728e-01 0.0000000e+00 
1.6250000e+00 2.8349364e-01 0.0000000e+00 
1.7500000e+00 0.0000000e+00 0.0000000e+00 
1.5000000e+00 1.0000000e+00 0.0000000e+00 
1.6250000e+00 7.8349364e-01 0.0000000e+00 
1.7500000e+00 5.6698728e-01 0.0000000e+00 
1.8750000e+00 2.8349364e-01 0.0000000e+00 
2.0000000e+00 0.0000000e+00 0.0000000e+00 
1.7500000e+00 1.0000000e+00 0.0000000e+00 
1.8750000e+00 7.8349364e-01 0.0000000e+00 
2.0000000e+00 5.6698728e-01 0.0000000e+00 
2.1250000e+00 2.8349364e-01 0.0000000e+00 
2.0000000e+00 1.0000000e+00 0.0000000e+00 
2.2500000e+00 0.0000000e+00 0.0000000e+00 
2.1250000e+00 7.8349364e-01 0.0000000e+00 
2.2500000e+00 5.6698728e-01 0.0000000e+00 
2.3750000e+00 2.8349364e-01 0.0000000e+00 
2.2500000e+00 1.0000000e+00 0.0000000e+00 
2.5000000e+00 0.0000000e+00 0.0000000e+00 
2.3750000e+00 7.8349364e-01 0.0000000e+00 
2.5000000e+00 5.6698728e-01 0.0000000e+00 
2.6250000e+00 2.8349364e-01 0.0000000e+00 
2.5000000e+00 1.0000000e+00 0.0000000e+00 
2.6250000e+00 7.8349364e-01 0.0000000e+00 
2.7500000e+00 0.0000000e+00 0.0000000e+00 
2.7500000e+00 5.6698728e-01 0.0000000e+00 
2.8750000e+00 2.8349364e-01 0.0000000e+00 
2.7500000e+00 1.0000000e+00 0.0000000e+00 
2.8750000e+00 7.8349364e-01 0.0000000e+00 
3.0000000e+00 0.0000000e+00 0.0000000e+00 
3.0000000e+00 5.0000000e-01 0.0000000e+00 
3.1250000e+00 2.1650635e-01 0.0000000e+00 
3.0000000e+00 1.0000000e+00 0.0000000e+00 
3.1250000e+00 7.1650636e-01 0.0000000e+00 
3.2500000e+00 0.0000000e+00 0.0000000e+00 
3.2500000e+00 4.3301269e-01 0.0000000e+00 
3.3750000e+00 2.1650635e-01 0.0000000e+00 
3.2500000e+00 1.0000000e+00 0.0000000e+00 
3.3750000e+00 7.1650636e-01 0.0000000e+00 
3.5000000e+00 0.0000000e+00 0.0000000e+00 
3.5000000e+00 4.3301269e-01 0.0000000e+00 
3.6250000e+00 2.1650635e-01 0.0000000e+00 
3.5000000e+00 1.0000000e+00 0.0000000e+00 
3.6250000e+00 7.1650636e-01 0.0000000e+00 
3.7500000e+00 0.0000000e+00 0.0000000e+00 
3.7500000e+00 4.3301269e-01 0.0000000e+00 
3.8750000e+00 2.1650635e-01 0.0000000e+00 
3.7500000e+00 1.0000000e+00 0.0000000e+00 
3.8750000e+00 7.1650636e-01 0.0000000e+00 
4.0000000e+00 0.0000000e+00 0.0000000e+00 
4.0208335e+00 4.6092409e-01 0.0000000e+00 
4.0000000e+00 1.0000000e+00 0.0000000e+00 
4.1458335e+00 2.4441773e-01 0.0000000e+00 
4.1458335e+00 7.4441773e-01 0.0000000e+00 
4.2500000e+00 0.0000000e+00 0.0000000e+00 
4.2916665e+00 4.8883545e-01 0.0000000e+00 
4.2500000e+00 1.0000000e+00 0.0000000e+00 
4.3958335e+00 2.4441773e-01 0.0000000e+00 
4.3958335e+00 7.4441773e-01 0.0000000e+00 
4.5000000e+00 0.0000000e+00 0.0000000e+00 
4.5000000e+00 1.0000000e+00 0.0000000e+00 
4.6458335e+00 4.9441773e-01 0.0000000e+00 
4.7500000e+00 0.0000000e+00 0.0000000e+00 
4.7500000e+00 2.5000000e-01 0.0000000e+00 
4.7500000e+00 7.5000000e-01 0.0000000e+00 
4.7500000e+00 1.0000000e+00 0.0000000e+00 
5.0000000e+00 0.0000000e+00 0.0000000e+00 
5.0000000e+00 2.5000000e-01 0.0000000e+00 
5.0000000e+00 5.0000000e-01 0.0000000e+00 
5.0000000e+00 7.5000000e-01 0.0000000e+00 
5.0000000e+00 1.0000000e+00 0.0000000e+00 

CELLS 38 266
6 0 5 4 2 3 1
6 79 89 85 84 87 82
6 62 52 55 57 53 58
6 85 89 98 87 93 91
6 79 85 75 82 80 76
6 55 52 45 53 49 50
6 75 85 81 80 83 78
6 79 75 69 76 71 74
6 45 52 42 49 47 44
6 55 45 48 50 46 51
6 69 75 65 71 70 66
6 65 75 72 70 73 68
6 69 65 59 66 61 64
6 59 65 55 61 60 56
6 37 48 45 43 46 41
6 100 90 98 95 94 99
6 26 18 11 21 13 19
6 11 18 4 13 10 6
6 26 11 24 19 17 23
6 24 11 15 17 12 20
6 26 24 33 23 28 29
6 33 24 35 28 30 34
6 35 24 27 30 25 31
6 33 35 42 34 39 38
6 42 35 45 39 40 44
6 45 35 37 40 36 41
6 15 27 24 22 25 20
6 96 98 89 97 93 92
6 81 72 75 77 73 78
6 14 4 18 8 10 16
6 5 15 11 9 12 7
6 48 59 55 54 56 51
6 90 81 85 86 83 88
6 27 37 35 32 36 31
6 72 62 65 67 63 68
6 62 55 65 58 60 63
6 90 85 98 88 91 94
6 5 11 4 7 6 3

CELL_TYPES 38
22
22
22
22
22
22
22
22
22
22
22
22
22
22
22
22
22
22
22
22
22
22
22
22
22
22
22
22
22
22
22
22
22
22
22
22
22
22
POINT_DATA 101
FIELD FieldData 1
DISPLACEMENT 3 101  float
0.0000000e+00 0.0000000e+00 0.0000000e+00 
0.0000000e+00 0.0000000e+00 0.0000000e+00 
0.0000000e+00 0.0000000e+00 0.0000000e+00 
-9.0931308e-06 -7.5097555e-06 0.0000000e+00 
0.0000000e+00 0.0000000e+00 0.0000000e+00 
0.0000000e+00 0.0000000e+00 0.0000000e+00 
-2.0072828e-05 -2.4152010e-05 0.0000000e+00 
-2.6989166e-05 -5.5110148e-05 0.0000000e+00 
0.0000000e+00 0.0000000e+00 0.0000000e+00 
0.0000000e+00 0.0000000e+00 0.0000000e+00 
-4.0797008e-06 3.3901142e-05 0.0000000e+00 
-4.6673454e-06 -2.1959732e-04 0.0000000e+00 
-1.8780271e-05 -1.0027959e-04 0.0000000e+00 
-1.9604601e-04 -2.1449267e-04 0.0000000e+00 
0.0000000e+00 0.0000000e+00 0.0000000e+00 
0.0000000e+00 0.0000000e+00 0.0000000e+00 
4.3954089e-05 2.0311167e-05 0.0000000e+00 
-2.0102663e-05 -4.4550723e-04 0.0000000e+00 
1.6837595e-04 4.4810833e-05 0.0000000e+00 
-3.8214226e-04 -1.2274151e-03 0.0000000e+00 
2.7949276e-05 -9.8802157e-05 0.0000000e+00 
3.8200530e-04 -1.2156294e-03 0.0000000e+00 
0.0000000e+00 0.0000000e+00 0.0000000e+00 
4.6584290e-04 -1.3500596e-03 0.0000000e+00 
3.5302208e-05 -2.4355997e-04 0.0000000e+00 
2.7139109e-05 -5.5913853e-05 0.0000000e+00 
-8.1830658e-05 -5.3156079e-03 0.0000000e+00 
0.0000000e+00 0.0000000e+00 0.0000000e+00 
1.1221715e-04 -1.4073754e-04 0.0000000e+00 
-3.9244187e-04 -4.6433724e-04 0.0000000e+00 
1.6232398e-05 -8.4432126e-05 0.0000000e+00 
5.5195987e-06 -3.5777892e-05 0.0000000e+00 
0.0000000e+00 0.0000000e+00 0.0000000e+00 
-5.0675862e-05 -1.0119475e-04 0.0000000e+00 
-3.1485724e-05 -1.1458334e-04 0.0000000e+00 
7.1717532e-06 -1.1956111e-04 0.0000000e+00 
1.1605515e-06 -4.1198531e-05 0.0000000e+00 
0.0000000e+00 0.0000000e+00 0.0000000e+00 
9.6757154e-05 -3.9274956e-04 0.0000000e+00 
-1.2547467e-04 -4.9627014e-04 0.0000000e+00 
1.3025452e-05 -1.7108007e-04 0.0000000e+00 
1.4140133e-05 -3.5029458e-05 0.0000000e+00 
-2.0627751e-05 -1.8045676e-03 0.0000000e+00 
0.0000000e+00 0.0000000e+00 0.0000000e+00 
1.5561248e-04 -4.4517432e-04 0.0000000e+00 
1.6605771e-05 -7.7412238e-05 0.0000000e+00 
1.2584900e-05 -1.6170770e-05 0.0000000e+00 
-1.3277479e-04 -1.5519340e-04 0.0000000e+00 
0.0000000e+00 0.0000000e+00 0.0000000e+00 
4.0806775e-05 -4.9017272e-05 0.0000000e+00 
1.1868570e-05 -1.8852310e-05 0.0000000e+00 
6.3302600e-06 -5.3210897e-06 0.0000000e+00 
-3.5905741e-05 -4.0372212e-05 0.0000000e+00 
1.1737543e-05 -8.8563575e-06 0.0000000e+00 
0.0000000e+00 0.0000000e+00 0.0000000e+00 
6.4584524e-06 -5.9019108e-06 0.0000000e+00 
2.9675773e-06 -1.6068240e-06 0.0000000e+00 
-1.1581349e-05 -6.4655751e-08 0.0000000e+00 
2.1637011e-06 6.2163434e-07 0.0000000e+00 
0.0000000e+00 0.0000000e+00 0.0000000e+00 
2.2278839e-06 -4.5229703e-07 0.0000000e+00 
9.4547443e-07 -3.3390086e-07 0.0000000e+00 
4.8204851e-07 6.2005682e-07 0.0000000e+00 
8.8051286e-07 1.2991796e-07 0.0000000e+00 
0.0000000e+00 0.0000000e+00 0.0000000e+00 
6.3953979e-07 -1.0509839e-07 0.0000000e+00 
3.2397509e-07 -6.0780017e-08 0.0000000e+00 
2.7990455e-07 2.2607139e-07 0.0000000e+00 
3.1118736e-07 7.9376676e-08 0.0000000e+00 
0.0000000e+00 0.0000000e+00 0.0000000e+00 
2.2694131e-07 -1.7589430e-09 0.0000000e+00 
1.0946780e-07 -1.5982005e-08 0.0000000e+00 
2.1879474e-07 9.0671143e-08 0.0000000e+00 
1.1889295e-07 2.1551919e-08 0.0000000e+00 
0.0000000e+00 0.0000000e+00 0.0000000e+00 
7.8421913e-08 4.8312097e-09 0.0000000e+00 
3.5736086e-08 -4.3364423e-09 0.0000000e+00 
9.1906593e-08 2.6550389e-08 0.0000000e+00 
4.6718849e-08 6.4838490e-09 0.0000000e+00 
0.0000000e+00 0.0000000e+00 0.0000000e+00 
2.6593925e-08 -2.6636199e-10 0.0000000e+00 
3.8167464e-08 9.0315471e-09 0.0000000e+00 
1.2416402e-08 -1.8191374e-09 0.0000000e+00 
1.7073857e-08 1.3711851e-09 0.0000000e+00 
0.0000000e+00 0.0000000e+00 0.0000000e+00 
9.1566683e-09 3.2318873e-10 0.0000000e+00 
1.5115383e-08 2.9755007e-09 0.0000000e+00 
4.3309112e-09 -6.7650441e-10 0.0000000e+00 
6.7228956e-09 3.9173403e-10 0.0000000e+00 
0.0000000e+00 0.0000000e+00 0.0000000e+00 
5.4286122e-09 1.0028925e-09 0.0000000e+00 
1.9439417e-09 -2.5938190e-10 0.0000000e+00 
0.0000000e+00 0.0000000e+00 0.0000000e+00 
9.2337499e-10 -2.5715710e-10 0.0000000e+00 
1.4200262e-09 2.0207953e-11 0.0000000e+00 
1.9679400e-09 4.5150997e-10 0.0000000e+00 
0.0000000e+00 0.0000000e+00 0.0000000e+00 
0.0000000e+00 0.0000000e+00 0.0000000e+00 
0.0000000e+00 0.0000000e+00 0.0000000e+00 
0.0000000e+00 0.0000000e+00 0.0000000e+00 
0.0000000e+00 0.0000000e+00 0.0000000e+00 
CELL_DATA 38
FIELD FieldData 0
