# vtk DataFile Version 4.0
vtk output
ASCII
DATASET UNSTRUCTURED_GRID
POINTS 101 float
0.0000000e+00 0.0000000e+00 0.0000000e+00 
0.0000000e+00 2.5000000e-01 0.0000000e+00 
2.5000000e-01 0.0000000e+00 0.0000000e+00 
2.5000000e-01 2.5000000e-01 0.0000000e+00 
0.0000000e+00 5.0000000e-01 0.0000000e+00 
5.0000000e-01 0.0000000e+00 0.0000000e+00 
3.5416666e-01 5.0558227e-01 0.0000000e+00 
6.0416669e-01 2.5558227e-01 0.0000000e+00 
0.0000000e+00 7.5000000e-01 0.0000000e+00 
7.5000000e-01 0.0000000e+00 0.0000000e+00 
2.5000000e-01 7.5000000e-01 0.0000000e+00 
7.0833331e-01 5.1116455e-01 0.0000000e+00 
8.5416669e-01 2.5558227e-01 0.0000000e+00 
6.0416669e-01 7.5558227e-01 0.0000000e+00 
0.0000000e+00 1.0000000e+00 0.0000000e+00 
1.0000000e+00 0.0000000e+00 0.0000000e+00 
2.5000000e-01 1.0000000e+00 0.0000000e+00 
9.7916669e-01 5.3907591e-01 0.0000000e+00 
5.0000000e-01 1.0000000e+00 0.0000000e+00 
8.5416669e-01 7.5558227e-01 0.0000000e+00 
1.1250000e+00 2.8349364e-01 0.0000000e+00 
7.5000000e-01 1.0000000e+00 0.0000000e+00 
1.2500000e+00 0.0000000e+00 0.0000000e+00 
1.1250000e+00 7.8349364e-01 0.0000000e+00 
1.2500000e+00 5.6698728e-01 0.0000000e+00 
1.3750000e+00 2.8349364e-01 0.0000000e+00 
1.0000000e+00 1.0000000e+00 0.0000000e+00 
1.5000000e+00 0.0000000e+00 0.0000000e+00 
1.3750000e+00 7.8349364e-01 0.0000000e+00 
1.2500000e+00 1.0000000e+00 0.0000000e+00 
1.5000000e+00 5.6698728e-01 0.0000000e+00 
1.6250000e+00 2.8349364e-01 0.0000000e+00 
1.7500000e+00 0.0000000e+00 0.0000000e+00 
1.5000000e+00 1.0000000e+00 0.0000000e+00 
1.6250000e+00 7.8349364e-01 0.0000000e+00 
1.7500000e+00 5.6698728e-01 0.0000000e+00 
1.8750000e+00 2.8349364e-01 0.0000000e+00 
2.0000000e+00 0.0000000e+00 0.0000000e+00 
1.7500000e+00 1.0000000e+00 0.0000000e+00 
1.8750000e+00 7.8349364e-01 0.0000000e+00 
2.0000000e+00 5.6698728e-01 0.0000000e+00 
2.1250000e+00 2.8349364e-01 0.0000000e+00 
2.0000000e+00 1.0000000e+00 0.0000000e+00 
2.2500000e+00 0.0000000e+00 0.0000000e+00 
2.1250000e+00 7.8349364e-01 0.0000000e+00 
2.2500000e+00 5.6698728e-01 0.0000000e+00 
2.3750000e+00 2.8349364e-01 0.0000000e+00 
2.2500000e+00 1.0000000e+00 0.0000000e+00 
2.5000000e+00 0.0000000e+00 0.0000000e+00 
2.3750000e+00 7.8349364e-01 0.0000000e+00 
2.5000000e+00 5.6698728e-01 0.0000000e+00 
2.6250000e+00 2.8349364e-01 0.0000000e+00 
2.5000000e+00 1.0000000e+00 0.0000000e+00 
2.6250000e+00 7.8349364e-01 0.0000000e+00 
2.7500000e+00 0.0000000e+00 0.0000000e+00 
2.7500000e+00 5.6698728e-01 0.0000000e+00 
2.8750000e+00 2.8349364e-01 0.0000000e+00 
2.7500000e+00 1.0000000e+00 0.0000000e+00 
2.8750000e+00 7.8349364e-01 0.0000000e+00 
3.0000000e+00 0.0000000e+00 0.0000000e+00 
3.0000000e+00 5.0000000e-01 0.0000000e+00 
3.1250000e+00 2.1650635e-01 0.0000000e+00 
3.0000000e+00 1.0000000e+00 0.0000000e+00 
3.1250000e+00 7.1650636e-01 0.0000000e+00 
3.2500000e+00 0.0000000e+00 0.0000000e+00 
3.2500000e+00 4.3301269e-01 0.0000000e+00 
3.3750000e+00 2.1650635e-01 0.0000000e+00 
3.2500000e+00 1.0000000e+00 0.0000000e+00 
3.3750000e+00 7.1650636e-01 0.0000000e+00 
3.5000000e+00 0.0000000e+00 0.0000000e+00 
3.5000000e+00 4.3301269e-01 0.0000000e+00 
3.6250000e+00 2.1650635e-01 0.0000000e+00 
3.5000000e+00 1.0000000e+00 0.0000000e+00 
3.6250000e+00 7.1650636e-01 0.0000000e+00 
3.7500000e+00 0.0000000e+00 0.0000000e+00 
3.7500000e+00 4.3301269e-01 0.0000000e+00 
3.8750000e+00 2.1650635e-01 0.0000000e+00 
3.7500000e+00 1.0000000e+00 0.0000000e+00 
3.8750000e+00 7.1650636e-01 0.0000000e+00 
4.0000000e+00 0.0000000e+00 0.0000000e+00 
4.0208335e+00 4.6092409e-01 0.0000000e+00 
4.0000000e+00 1.0000000e+00 0.0000000e+00 
4.1458335e+00 2.4441773e-01 0.0000000e+00 
4.1458335e+00 7.4441773e-01 0.0000000e+00 
4.2500000e+00 0.0000000e+00 0.0000000e+00 
4.2916665e+00 4.8883545e-01 0.0000000e+00 
4.2500000e+00 1.0000000e+00 0.0000000e+00 
4.3958335e+00 2.4441773e-01 0.0000000e+00 
4.3958335e+00 7.4441773e-01 0.0000000e+00 
4.5000000e+00 0.0000000e+00 0.0000000e+00 
4.5000000e+00 1.0000000e+00 0.0000000e+00 
4.6458335e+00 4.9441773e-01 0.0000000e+00 
4.7500000e+00 0.0000000e+00 0.0000000e+00 
4.7500000e+00 2.5000000e-01 0.0000000e+00 
4.7500000e+00 7.5000000e-01 0.0000000e+00 
4.7500000e+00 1.0000000e+00 0.0000000e+00 
5.0000000e+00 0.0000000e+00 0.0000000e+00 
5.0000000e+00 2.5000000e-01 0.0000000e+00 
5.0000000e+00 5.0000000e-01 0.0000000e+00 
5.0000000e+00 7.5000000e-01 0.0000000e+00 
5.0000000e+00 1.0000000e+00 0.0000000e+00 

CELLS 38 266
6 0 5 4 2 3 1
6 79 89 85 84 87 82
6 62 52 55 57 53 58
6 85 89 98 87 93 91
6 79 85 75 82 80 76
6 55 52 45 53 49 50
6 75 85 81 80 83 78
6 79 75 69 76 71 74
6 45 52 42 49 47 44
6 55 45 48 50 46 51
6 69 75 65 71 70 66
6 65 75 72 70 73 68
6 69 65 59 66 61 64
6 59 65 55 61 60 56
6 37 48 45 43 46 41
6 100 90 98 95 94 99
6 26 18 11 21 13 19
6 11 18 4 13 10 6
6 26 11 24 19 17 23
6 24 11 15 17 12 20
6 26 24 33 23 28 29
6 33 24 35 28 30 34
6 35 24 27 30 25 31
6 33 35 42 34 39 38
6 42 35 45 39 40 44
6 45 35 37 40 36 41
6 15 27 24 22 25 20
6 96 98 89 97 93 92
6 81 72 75 77 73 78
6 14 4 18 8 10 16
6 5 15 11 9 12 7
6 48 59 55 54 56 51
6 90 81 85 86 83 88
6 27 37 35 32 36 31
6 72 62 65 67 63 68
6 62 55 65 58 60 63
6 90 85 98 88 91 94
6 5 11 4 7 6 3

CELL_TYPES 38
22
22
22
22
22
22
22
22
22
22
22
22
22
22
22
22
22
22
22
22
22
22
22
22
22
22
22
22
22
22
22
22
22
22
22
22
22
22
POINT_DATA 101
FIELD FieldData 1
DISPLACEMENT 3 101  float
0.0000000e+00 0.0000000e+00 0.0000000e+00 
0.0000000e+00 0.0000000e+00 0.0000000e+00 
0.0000000e+00 0.0000000e+00 0.0000000e+00 
-2.3053394e-08 -5.0110471e-09 0.0000000e+00 
0.0000000e+00 0.0000000e+00 0.0000000e+00 
0.0000000e+00 0.0000000e+00 0.0000000e+00 
-4.3252236e-08 5.2157267e-10 0.0000000e+00 
-1.2351634e-07 -2.0842166e-09 0.0000000e+00 
0.0000000e+00 0.0000000e+00 0.0000000e+00 
0.0000000e+00 0.0000000e+00 0.0000000e+00 
-2.8312513e-08 2.1514277e-09 0.0000000e+00 
-2.0859402e-07 6.1688766e-08 0.0000000e+00 
-3.8247148e-07 -9.9238031e-09 0.0000000e+00 
-1.2448774e-07 2.6956966e-08 0.0000000e+00 
0.0000000e+00 0.0000000e+00 0.0000000e+00 
0.0000000e+00 0.0000000e+00 0.0000000e+00 
-3.8397832e-08 1.0159807e-08 0.0000000e+00 
-5.0501677e-07 1.2743165e-07 0.0000000e+00 
-1.0400258e-07 2.3036849e-08 0.0000000e+00 
-2.8025019e-07 7.4583582e-08 0.0000000e+00 
-1.2996311e-06 -1.9828240e-08 0.0000000e+00 
-3.0656631e-07 7.1444731e-08 0.0000000e+00 
0.0000000e+00 0.0000000e+00 0.0000000e+00 
-7.0444639e-07 3.0738326e-07 0.0000000e+00 
-1.4327235e-06 6.0508171e-07 0.0000000e+00 
-3.9507549e-06 -1.0293734e-06 0.0000000e+00 
-7.6894440e-07 2.7644217e-07 0.0000000e+00 
0.0000000e+00 0.0000000e+00 0.0000000e+00 
-1.2625030e-06 2.1934968e-06 0.0000000e+00 
-2.4801527e-06 9.4333018e-07 0.0000000e+00 
-8.3634977e-06 1.3116645e-06 0.0000000e+00 
-1.1021852e-05 -6.2096910e-06 0.0000000e+00 
0.0000000e+00 0.0000000e+00 0.0000000e+00 
-5.3436079e-06 8.0030104e-06 0.0000000e+00 
-2.4854398e-06 9.1131060e-06 0.0000000e+00 
-2.9717932e-05 -2.0141322e-05 0.0000000e+00 
-2.2258773e-05 -2.1555301e-05 0.0000000e+00 
0.0000000e+00 0.0000000e+00 0.0000000e+00 
4.0934363e-05 1.9800895e-05 0.0000000e+00 
-2.7479829e-05 1.8899436e-05 0.0000000e+00 
-5.2922722e-05 -8.2492326e-05 0.0000000e+00 
-3.7509730e-05 -5.9382488e-05 0.0000000e+00 
1.7878348e-04 5.5608805e-05 0.0000000e+00 
0.0000000e+00 0.0000000e+00 0.0000000e+00 
-1.9749180e-04 -2.6473790e-04 0.0000000e+00 
-3.4398370e-05 -3.0501848e-04 0.0000000e+00 
-2.3566678e-05 -1.0913344e-04 0.0000000e+00 
3.9598992e-04 -1.1772662e-03 0.0000000e+00 
0.0000000e+00 0.0000000e+00 0.0000000e+00 
-3.9531407e-04 -1.4933551e-03 0.0000000e+00 
1.9723220e-05 -5.1046943e-04 0.0000000e+00 
2.9401992e-05 -1.0384157e-04 0.0000000e+00 
-6.7378605e-05 -5.4154261e-03 0.0000000e+00 
4.5927486e-04 -1.3327965e-03 0.0000000e+00 
0.0000000e+00 0.0000000e+00 0.0000000e+00 
3.8507558e-05 -2.3814659e-04 0.0000000e+00 
2.7077172e-05 -5.7382298e-05 0.0000000e+00 
-3.8076006e-04 -4.5783422e-04 0.0000000e+00 
1.0553639e-04 -1.3975358e-04 0.0000000e+00 
0.0000000e+00 0.0000000e+00 0.0000000e+00 
1.3226289e-05 -7.5222932e-05 0.0000000e+00 
8.8944662e-06 -2.6321190e-05 0.0000000e+00 
-2.3740713e-05 -9.7981479e-05 0.0000000e+00 
-2.9322257e-05 -1.1633352e-04 0.0000000e+00 
0.0000000e+00 0.0000000e+00 0.0000000e+00 
3.0279039e-05 -8.6469408e-05 0.0000000e+00 
5.3802187e-06 -3.5713030e-05 0.0000000e+00 
6.6430810e-05 -4.1882202e-04 0.0000000e+00 
-9.6565112e-05 -3.6494978e-04 0.0000000e+00 
0.0000000e+00 0.0000000e+00 0.0000000e+00 
8.2535034e-06 -9.2647642e-05 0.0000000e+00 
6.5640161e-06 -3.0257752e-05 0.0000000e+00 
-1.7836888e-05 -1.7027881e-03 0.0000000e+00 
1.3139370e-04 -3.3275597e-04 0.0000000e+00 
0.0000000e+00 0.0000000e+00 0.0000000e+00 
-1.4105592e-05 -5.7164561e-05 0.0000000e+00 
6.0540983e-06 -1.1757126e-05 0.0000000e+00 
-1.0531541e-04 -1.9082485e-04 0.0000000e+00 
5.2297382e-05 -6.3948792e-05 0.0000000e+00 
0.0000000e+00 0.0000000e+00 0.0000000e+00 
5.5728233e-06 -1.7899369e-05 0.0000000e+00 
-4.8176142e-05 -2.5145799e-05 0.0000000e+00 
3.9489692e-06 -4.8471229e-06 0.0000000e+00 
1.1698837e-05 -2.7463675e-06 0.0000000e+00 
0.0000000e+00 0.0000000e+00 0.0000000e+00 
5.9352669e-06 -6.0687794e-06 0.0000000e+00 
-1.5830799e-05 1.1618919e-06 0.0000000e+00 
2.3845107e-06 -2.0577475e-06 0.0000000e+00 
2.4941755e-06 1.0778923e-06 0.0000000e+00 
0.0000000e+00 0.0000000e+00 0.0000000e+00 
-4.1052755e-07 2.1311735e-06 0.0000000e+00 
9.0027481e-07 1.3200865e-07 0.0000000e+00 
0.0000000e+00 0.0000000e+00 0.0000000e+00 
5.7026745e-07 -1.6621362e-08 0.0000000e+00 
3.4645822e-07 3.0974726e-07 0.0000000e+00 
1.6464053e-07 4.1655485e-07 0.0000000e+00 
0.0000000e+00 0.0000000e+00 0.0000000e+00 
0.0000000e+00 0.0000000e+00 0.0000000e+00 
0.0000000e+00 0.0000000e+00 0.0000000e+00 
0.0000000e+00 0.0000000e+00 0.0000000e+00 
0.0000000e+00 0.0000000e+00 0.0000000e+00 
CELL_DATA 38
FIELD FieldData 0
