# vtk DataFile Version 4.0
vtk output
ASCII
DATASET UNSTRUCTURED_GRID
POINTS 101 float
0.0000000e+00 0.0000000e+00 0.0000000e+00 
0.0000000e+00 2.5000000e-01 0.0000000e+00 
2.5000000e-01 0.0000000e+00 0.0000000e+00 
2.5000000e-01 2.5000000e-01 0.0000000e+00 
0.0000000e+00 5.0000000e-01 0.0000000e+00 
5.0000000e-01 0.0000000e+00 0.0000000e+00 
3.5416666e-01 5.0558227e-01 0.0000000e+00 
6.0416669e-01 2.5558227e-01 0.0000000e+00 
0.0000000e+00 7.5000000e-01 0.0000000e+00 
7.5000000e-01 0.0000000e+00 0.0000000e+00 
2.5000000e-01 7.5000000e-01 0.0000000e+00 
7.0833331e-01 5.1116455e-01 0.0000000e+00 
8.5416669e-01 2.5558227e-01 0.0000000e+00 
6.0416669e-01 7.5558227e-01 0.0000000e+00 
0.0000000e+00 1.0000000e+00 0.0000000e+00 
1.0000000e+00 0.0000000e+00 0.0000000e+00 
2.5000000e-01 1.0000000e+00 0.0000000e+00 
9.7916669e-01 5.3907591e-01 0.0000000e+00 
5.0000000e-01 1.0000000e+00 0.0000000e+00 
8.5416669e-01 7.5558227e-01 0.0000000e+00 
1.1250000e+00 2.8349364e-01 0.0000000e+00 
7.5000000e-01 1.0000000e+00 0.0000000e+00 
1.2500000e+00 0.0000000e+00 0.0000000e+00 
1.1250000e+00 7.8349364e-01 0.0000000e+00 
1.2500000e+00 5.6698728e-01 0.0000000e+00 
1.3750000e+00 2.8349364e-01 0.0000000e+00 
1.0000000e+00 1.0000000e+00 0.0000000e+00 
1.5000000e+00 0.0000000e+00 0.0000000e+00 
1.3750000e+00 7.8349364e-01 0.0000000e+00 
1.2500000e+00 1.0000000e+00 0.0000000e+00 
1.5000000e+00 5.6698728e-01 0.0000000e+00 
1.6250000e+00 2.8349364e-01 0.0000000e+00 
1.7500000e+00 0.0000000e+00 0.0000000e+00 
1.5000000e+00 1.0000000e+00 0.0000000e+00 
1.6250000e+00 7.8349364e-01 0.0000000e+00 
1.7500000e+00 5.6698728e-01 0.0000000e+00 
1.8750000e+00 2.8349364e-01 0.0000000e+00 
2.0000000e+00 0.0000000e+00 0.0000000e+00 
1.7500000e+00 1.0000000e+00 0.0000000e+00 
1.8750000e+00 7.8349364e-01 0.0000000e+00 
2.0000000e+00 5.6698728e-01 0.0000000e+00 
2.1250000e+00 2.8349364e-01 0.0000000e+00 
2.0000000e+00 1.0000000e+00 0.0000000e+00 
2.2500000e+00 0.0000000e+00 0.0000000e+00 
2.1250000e+00 7.8349364e-01 0.0000000e+00 
2.2500000e+00 5.6698728e-01 0.0000000e+00 
2.3750000e+00 2.8349364e-01 0.0000000e+00 
2.2500000e+00 1.0000000e+00 0.0000000e+00 
2.5000000e+00 0.0000000e+00 0.0000000e+00 
2.3750000e+00 7.8349364e-01 0.0000000e+00 
2.5000000e+00 5.6698728e-01 0.0000000e+00 
2.6250000e+00 2.8349364e-01 0.0000000e+00 
2.5000000e+00 1.0000000e+00 0.0000000e+00 
2.6250000e+00 7.8349364e-01 0.0000000e+00 
2.7500000e+00 0.0000000e+00 0.0000000e+00 
2.7500000e+00 5.6698728e-01 0.0000000e+00 
2.8750000e+00 2.8349364e-01 0.0000000e+00 
2.7500000e+00 1.0000000e+00 0.0000000e+00 
2.8750000e+00 7.8349364e-01 0.0000000e+00 
3.0000000e+00 0.0000000e+00 0.0000000e+00 
3.0000000e+00 5.0000000e-01 0.0000000e+00 
3.1250000e+00 2.1650635e-01 0.0000000e+00 
3.0000000e+00 1.0000000e+00 0.0000000e+00 
3.1250000e+00 7.1650636e-01 0.0000000e+00 
3.2500000e+00 0.0000000e+00 0.0000000e+00 
3.2500000e+00 4.3301269e-01 0.0000000e+00 
3.3750000e+00 2.1650635e-01 0.0000000e+00 
3.2500000e+00 1.0000000e+00 0.0000000e+00 
3.3750000e+00 7.1650636e-01 0.0000000e+00 
3.5000000e+00 0.0000000e+00 0.0000000e+00 
3.5000000e+00 4.3301269e-01 0.0000000e+00 
3.6250000e+00 2.1650635e-01 0.0000000e+00 
3.5000000e+00 1.0000000e+00 0.0000000e+00 
3.6250000e+00 7.1650636e-01 0.0000000e+00 
3.7500000e+00 0.0000000e+00 0.0000000e+00 
3.7500000e+00 4.3301269e-01 0.0000000e+00 
3.8750000e+00 2.1650635e-01 0.0000000e+00 
3.7500000e+00 1.0000000e+00 0.0000000e+00 
3.8750000e+00 7.1650636e-01 0.0000000e+00 
4.0000000e+00 0.0000000e+00 0.0000000e+00 
4.0208335e+00 4.6092409e-01 0.0000000e+00 
4.0000000e+00 1.0000000e+00 0.0000000e+00 
4.1458335e+00 2.4441773e-01 0.0000000e+00 
4.1458335e+00 7.4441773e-01 0.0000000e+00 
4.2500000e+00 0.0000000e+00 0.0000000e+00 
4.2916665e+00 4.8883545e-01 0.0000000e+00 
4.2500000e+00 1.0000000e+00 0.0000000e+00 
4.3958335e+00 2.4441773e-01 0.0000000e+00 
4.3958335e+00 7.4441773e-01 0.0000000e+00 
4.5000000e+00 0.0000000e+00 0.0000000e+00 
4.5000000e+00 1.0000000e+00 0.0000000e+00 
4.6458335e+00 4.9441773e-01 0.0000000e+00 
4.7500000e+00 0.0000000e+00 0.0000000e+00 
4.7500000e+00 2.5000000e-01 0.0000000e+00 
4.7500000e+00 7.5000000e-01 0.0000000e+00 
4.7500000e+00 1.0000000e+00 0.0000000e+00 
5.0000000e+00 0.0000000e+00 0.0000000e+00 
5.0000000e+00 2.5000000e-01 0.0000000e+00 
5.0000000e+00 5.0000000e-01 0.0000000e+00 
5.0000000e+00 7.5000000e-01 0.0000000e+00 
5.0000000e+00 1.0000000e+00 0.0000000e+00 

CELLS 38 266
6 0 5 4 2 3 1
6 79 89 85 84 87 82
6 62 52 55 57 53 58
6 85 89 98 87 93 91
6 79 85 75 82 80 76
6 55 52 45 53 49 50
6 75 85 81 80 83 78
6 79 75 69 76 71 74
6 45 52 42 49 47 44
6 55 45 48 50 46 51
6 69 75 65 71 70 66
6 65 75 72 70 73 68
6 69 65 59 66 61 64
6 59 65 55 61 60 56
6 37 48 45 43 46 41
6 100 90 98 95 94 99
6 26 18 11 21 13 19
6 11 18 4 13 10 6
6 26 11 24 19 17 23
6 24 11 15 17 12 20
6 26 24 33 23 28 29
6 33 24 35 28 30 34
6 35 24 27 30 25 31
6 33 35 42 34 39 38
6 42 35 45 39 40 44
6 45 35 37 40 36 41
6 15 27 24 22 25 20
6 96 98 89 97 93 92
6 81 72 75 77 73 78
6 14 4 18 8 10 16
6 5 15 11 9 12 7
6 48 59 55 54 56 51
6 90 81 85 86 83 88
6 27 37 35 32 36 31
6 72 62 65 67 63 68
6 62 55 65 58 60 63
6 90 85 98 88 91 94
6 5 11 4 7 6 3

CELL_TYPES 38
22
22
22
22
22
22
22
22
22
22
22
22
22
22
22
22
22
22
22
22
22
22
22
22
22
22
22
22
22
22
22
22
22
22
22
22
22
22
POINT_DATA 101
FIELD FieldData 1
DISPLACEMENT 3 101  float
0.0000000e+00 0.0000000e+00 0.0000000e+00 
0.0000000e+00 0.0000000e+00 0.0000000e+00 
0.0000000e+00 0.0000000e+00 0.0000000e+00 
-1.1752428e-09 -3.0727232e-10 0.0000000e+00 
0.0000000e+00 0.0000000e+00 0.0000000e+00 
0.0000000e+00 0.0000000e+00 0.0000000e+00 
-2.4087827e-09 -2.1845385e-10 0.0000000e+00 
-5.8080030e-09 -6.8755102e-10 0.0000000e+00 
0.0000000e+00 0.0000000e+00 0.0000000e+00 
0.0000000e+00 0.0000000e+00 0.0000000e+00 
-1.7183550e-09 5.8737619e-11 0.0000000e+00 
-1.1600766e-08 1.1879848e-09 0.0000000e+00 
-1.6858978e-08 -1.8639195e-09 0.0000000e+00 
-8.1208231e-09 9.3302543e-10 0.0000000e+00 
0.0000000e+00 0.0000000e+00 0.0000000e+00 
0.0000000e+00 0.0000000e+00 0.0000000e+00 
-2.3586453e-09 5.8040273e-10 0.0000000e+00 
-3.0944872e-08 1.8209696e-09 0.0000000e+00 
-6.4197216e-09 1.4118570e-09 0.0000000e+00 
-2.0368736e-08 2.2547779e-09 0.0000000e+00 
-5.4604481e-08 -3.5681540e-09 0.0000000e+00 
-1.7265570e-08 3.8411545e-09 0.0000000e+00 
0.0000000e+00 0.0000000e+00 0.0000000e+00 
-5.7394850e-08 1.0873095e-08 0.0000000e+00 
-9.0061334e-08 1.9613324e-08 0.0000000e+00 
-1.5982604e-07 -9.1047001e-09 0.0000000e+00 
-4.3103153e-08 1.1249877e-08 0.0000000e+00 
0.0000000e+00 0.0000000e+00 0.0000000e+00 
-1.3791765e-07 3.0916098e-08 0.0000000e+00 
-1.1036052e-07 2.8902379e-08 0.0000000e+00 
-2.3388600e-07 3.7528071e-08 0.0000000e+00 
-4.6023698e-07 -2.9139764e-08 0.0000000e+00 
0.0000000e+00 0.0000000e+00 0.0000000e+00 
-2.7181932e-07 9.1892211e-08 0.0000000e+00 
-3.4009238e-07 1.0367337e-07 0.0000000e+00 
-6.3694637e-07 1.2873653e-07 0.0000000e+00 
-1.3615396e-06 -1.8970633e-07 0.0000000e+00 
0.0000000e+00 0.0000000e+00 0.0000000e+00 
-5.8643303e-07 2.3749938e-07 0.0000000e+00 
-8.2877733e-07 2.9625252e-07 0.0000000e+00 
-2.0230543e-06 1.6454199e-07 0.0000000e+00 
-3.8782400e-06 -1.0055318e-06 0.0000000e+00 
-1.2523886e-06 8.1058903e-07 0.0000000e+00 
0.0000000e+00 0.0000000e+00 0.0000000e+00 
-2.0755315e-06 9.4291386e-07 0.0000000e+00 
-6.0788329e-06 -2.4880808e-06 0.0000000e+00 
-1.0186436e-05 -5.2298415e-06 0.0000000e+00 
4.1162243e-06 1.4750020e-06 0.0000000e+00 
0.0000000e+00 0.0000000e+00 0.0000000e+00 
-8.1603985e-06 -1.6868530e-06 0.0000000e+00 
-2.3309572e-05 -9.3043573e-06 0.0000000e+00 
-2.4890407e-05 -2.0828225e-05 0.0000000e+00 
1.6326909e-05 -1.3871752e-05 0.0000000e+00 
-2.4322049e-05 -1.6107146e-05 0.0000000e+00 
0.0000000e+00 0.0000000e+00 0.0000000e+00 
-6.7486588e-05 -7.9332589e-05 0.0000000e+00 
-4.1314459e-05 -6.3076433e-05 0.0000000e+00 
1.4341374e-04 -6.6307381e-05 0.0000000e+00 
-1.1698602e-04 -2.3734146e-04 0.0000000e+00 
0.0000000e+00 0.0000000e+00 0.0000000e+00 
-9.9175966e-05 -2.2001135e-04 0.0000000e+00 
-1.4688917e-05 -7.1820636e-05 0.0000000e+00 
2.8283574e-04 -9.9569268e-04 0.0000000e+00 
-2.2135150e-04 -7.1623770e-04 0.0000000e+00 
0.0000000e+00 0.0000000e+00 0.0000000e+00 
-7.9824549e-06 -2.7032930e-04 0.0000000e+00 
1.7871545e-05 -7.0314003e-05 0.0000000e+00 
-2.4163966e-05 -3.6830297e-03 0.0000000e+00 
2.6822617e-04 -6.2974106e-04 0.0000000e+00 
0.0000000e+00 0.0000000e+00 0.0000000e+00 
6.2691033e-05 -1.4345880e-04 0.0000000e+00 
1.7774642e-05 -4.7550777e-05 0.0000000e+00 
-2.6956745e-04 -3.9848121e-04 0.0000000e+00 
9.2092771e-05 -9.7816934e-05 0.0000000e+00 
0.0000000e+00 0.0000000e+00 0.0000000e+00 
3.0875497e-05 -9.0782843e-05 0.0000000e+00 
1.0717419e-05 -3.3534652e-05 0.0000000e+00 
-6.9857444e-05 -5.2630985e-05 0.0000000e+00 
-1.8522040e-05 -6.8231049e-05 0.0000000e+00 
0.0000000e+00 0.0000000e+00 0.0000000e+00 
-1.0085616e-05 -7.0755552e-05 0.0000000e+00 
7.1415874e-05 -3.0208839e-04 0.0000000e+00 
1.3540011e-06 -3.1003761e-05 0.0000000e+00 
-6.6248715e-05 -3.0133515e-04 0.0000000e+00 
0.0000000e+00 0.0000000e+00 0.0000000e+00 
1.7901953e-05 -1.2129471e-04 0.0000000e+00 
1.1703420e-06 -1.2432066e-03 0.0000000e+00 
1.2699273e-05 -3.2064403e-05 0.0000000e+00 
9.6795586e-05 -2.0602052e-04 0.0000000e+00 
0.0000000e+00 0.0000000e+00 0.0000000e+00 
-1.0216947e-04 -1.1678958e-04 0.0000000e+00 
2.4453691e-05 -2.4184332e-05 0.0000000e+00 
0.0000000e+00 0.0000000e+00 0.0000000e+00 
6.7885712e-06 -8.0068785e-06 0.0000000e+00 
9.4677071e-06 8.3925561e-06 0.0000000e+00 
-4.1732110e-05 -6.1546807e-06 0.0000000e+00 
0.0000000e+00 0.0000000e+00 0.0000000e+00 
0.0000000e+00 0.0000000e+00 0.0000000e+00 
0.0000000e+00 0.0000000e+00 0.0000000e+00 
0.0000000e+00 0.0000000e+00 0.0000000e+00 
0.0000000e+00 0.0000000e+00 0.0000000e+00 
CELL_DATA 38
FIELD FieldData 0
