# vtk DataFile Version 4.0
vtk output
ASCII
DATASET UNSTRUCTURED_GRID
POINTS 101 float
0.0000000e+00 0.0000000e+00 0.0000000e+00 
0.0000000e+00 2.5000000e-01 0.0000000e+00 
2.5000000e-01 0.0000000e+00 0.0000000e+00 
2.5000000e-01 2.5000000e-01 0.0000000e+00 
0.0000000e+00 5.0000000e-01 0.0000000e+00 
5.0000000e-01 0.0000000e+00 0.0000000e+00 
3.5416666e-01 5.0558227e-01 0.0000000e+00 
6.0416669e-01 2.5558227e-01 0.0000000e+00 
0.0000000e+00 7.5000000e-01 0.0000000e+00 
7.5000000e-01 0.0000000e+00 0.0000000e+00 
2.5000000e-01 7.5000000e-01 0.0000000e+00 
7.0833331e-01 5.1116455e-01 0.0000000e+00 
8.5416669e-01 2.5558227e-01 0.0000000e+00 
6.0416669e-01 7.5558227e-01 0.0000000e+00 
0.0000000e+00 1.0000000e+00 0.0000000e+00 
1.0000000e+00 0.0000000e+00 0.0000000e+00 
2.5000000e-01 1.0000000e+00 0.0000000e+00 
9.7916669e-01 5.3907591e-01 0.0000000e+00 
5.0000000e-01 1.0000000e+00 0.0000000e+00 
8.5416669e-01 7.5558227e-01 0.0000000e+00 
1.1250000e+00 2.8349364e-01 0.0000000e+00 
7.5000000e-01 1.0000000e+00 0.0000000e+00 
1.2500000e+00 0.0000000e+00 0.0000000e+00 
1.1250000e+00 7.8349364e-01 0.0000000e+00 
1.2500000e+00 5.6698728e-01 0.0000000e+00 
1.3750000e+00 2.8349364e-01 0.0000000e+00 
1.0000000e+00 1.0000000e+00 0.0000000e+00 
1.5000000e+00 0.0000000e+00 0.0000000e+00 
1.3750000e+00 7.8349364e-01 0.0000000e+00 
1.2500000e+00 1.0000000e+00 0.0000000e+00 
1.5000000e+00 5.6698728e-01 0.0000000e+00 
1.6250000e+00 2.8349364e-01 0.0000000e+00 
1.7500000e+00 0.0000000e+00 0.0000000e+00 
1.5000000e+00 1.0000000e+00 0.0000000e+00 
1.6250000e+00 7.8349364e-01 0.0000000e+00 
1.7500000e+00 5.6698728e-01 0.0000000e+00 
1.8750000e+00 2.8349364e-01 0.0000000e+00 
2.0000000e+00 0.0000000e+00 0.0000000e+00 
1.7500000e+00 1.0000000e+00 0.0000000e+00 
1.8750000e+00 7.8349364e-01 0.0000000e+00 
2.0000000e+00 5.6698728e-01 0.0000000e+00 
2.1250000e+00 2.8349364e-01 0.0000000e+00 
2.0000000e+00 1.0000000e+00 0.0000000e+00 
2.2500000e+00 0.0000000e+00 0.0000000e+00 
2.1250000e+00 7.8349364e-01 0.0000000e+00 
2.2500000e+00 5.6698728e-01 0.0000000e+00 
2.3750000e+00 2.8349364e-01 0.0000000e+00 
2.2500000e+00 1.0000000e+00 0.0000000e+00 
2.5000000e+00 0.0000000e+00 0.0000000e+00 
2.3750000e+00 7.8349364e-01 0.0000000e+00 
2.5000000e+00 5.6698728e-01 0.0000000e+00 
2.6250000e+00 2.8349364e-01 0.0000000e+00 
2.5000000e+00 1.0000000e+00 0.0000000e+00 
2.6250000e+00 7.8349364e-01 0.0000000e+00 
2.7500000e+00 0.0000000e+00 0.0000000e+00 
2.7500000e+00 5.6698728e-01 0.0000000e+00 
2.8750000e+00 2.8349364e-01 0.0000000e+00 
2.7500000e+00 1.0000000e+00 0.0000000e+00 
2.8750000e+00 7.8349364e-01 0.0000000e+00 
3.0000000e+00 0.0000000e+00 0.0000000e+00 
3.0000000e+00 5.0000000e-01 0.0000000e+00 
3.1250000e+00 2.1650635e-01 0.0000000e+00 
3.0000000e+00 1.0000000e+00 0.0000000e+00 
3.1250000e+00 7.1650636e-01 0.0000000e+00 
3.2500000e+00 0.0000000e+00 0.0000000e+00 
3.2500000e+00 4.3301269e-01 0.0000000e+00 
3.3750000e+00 2.1650635e-01 0.0000000e+00 
3.2500000e+00 1.0000000e+00 0.0000000e+00 
3.3750000e+00 7.1650636e-01 0.0000000e+00 
3.5000000e+00 0.0000000e+00 0.0000000e+00 
3.5000000e+00 4.3301269e-01 0.0000000e+00 
3.6250000e+00 2.1650635e-01 0.0000000e+00 
3.5000000e+00 1.0000000e+00 0.0000000e+00 
3.6250000e+00 7.1650636e-01 0.0000000e+00 
3.7500000e+00 0.0000000e+00 0.0000000e+00 
3.7500000e+00 4.3301269e-01 0.0000000e+00 
3.8750000e+00 2.1650635e-01 0.0000000e+00 
3.7500000e+00 1.0000000e+00 0.0000000e+00 
3.8750000e+00 7.1650636e-01 0.0000000e+00 
4.0000000e+00 0.0000000e+00 0.0000000e+00 
4.0208335e+00 4.6092409e-01 0.0000000e+00 
4.0000000e+00 1.0000000e+00 0.0000000e+00 
4.1458335e+00 2.4441773e-01 0.0000000e+00 
4.1458335e+00 7.4441773e-01 0.0000000e+00 
4.2500000e+00 0.0000000e+00 0.0000000e+00 
4.2916665e+00 4.8883545e-01 0.0000000e+00 
4.2500000e+00 1.0000000e+00 0.0000000e+00 
4.3958335e+00 2.4441773e-01 0.0000000e+00 
4.3958335e+00 7.4441773e-01 0.0000000e+00 
4.5000000e+00 0.0000000e+00 0.0000000e+00 
4.5000000e+00 1.0000000e+00 0.0000000e+00 
4.6458335e+00 4.9441773e-01 0.0000000e+00 
4.7500000e+00 0.0000000e+00 0.0000000e+00 
4.7500000e+00 2.5000000e-01 0.0000000e+00 
4.7500000e+00 7.5000000e-01 0.0000000e+00 
4.7500000e+00 1.0000000e+00 0.0000000e+00 
5.0000000e+00 0.0000000e+00 0.0000000e+00 
5.0000000e+00 2.5000000e-01 0.0000000e+00 
5.0000000e+00 5.0000000e-01 0.0000000e+00 
5.0000000e+00 7.5000000e-01 0.0000000e+00 
5.0000000e+00 1.0000000e+00 0.0000000e+00 

CELLS 38 266
6 0 5 4 2 3 1
6 79 89 85 84 87 82
6 62 52 55 57 53 58
6 85 89 98 87 93 91
6 79 85 75 82 80 76
6 55 52 45 53 49 50
6 75 85 81 80 83 78
6 79 75 69 76 71 74
6 45 52 42 49 47 44
6 55 45 48 50 46 51
6 69 75 65 71 70 66
6 65 75 72 70 73 68
6 69 65 59 66 61 64
6 59 65 55 61 60 56
6 37 48 45 43 46 41
6 100 90 98 95 94 99
6 26 18 11 21 13 19
6 11 18 4 13 10 6
6 26 11 24 19 17 23
6 24 11 15 17 12 20
6 26 24 33 23 28 29
6 33 24 35 28 30 34
6 35 24 27 30 25 31
6 33 35 42 34 39 38
6 42 35 45 39 40 44
6 45 35 37 40 36 41
6 15 27 24 22 25 20
6 96 98 89 97 93 92
6 81 72 75 77 73 78
6 14 4 18 8 10 16
6 5 15 11 9 12 7
6 48 59 55 54 56 51
6 90 81 85 86 83 88
6 27 37 35 32 36 31
6 72 62 65 67 63 68
6 62 55 65 58 60 63
6 90 85 98 88 91 94
6 5 11 4 7 6 3

CELL_TYPES 38
22
22
22
22
22
22
22
22
22
22
22
22
22
22
22
22
22
22
22
22
22
22
22
22
22
22
22
22
22
22
22
22
22
22
22
22
22
22
POINT_DATA 101
FIELD FieldData 1
DISPLACEMENT 3 101  float
0.0000000e+00 0.0000000e+00 0.0000000e+00 
0.0000000e+00 0.0000000e+00 0.0000000e+00 
0.0000000e+00 0.0000000e+00 0.0000000e+00 
-7.0578842e-08 -1.1774026e-08 0.0000000e+00 
0.0000000e+00 0.0000000e+00 0.0000000e+00 
0.0000000e+00 0.0000000e+00 0.0000000e+00 
-1.1543925e-07 1.1157487e-08 0.0000000e+00 
-3.8771427e-07 -2.9032252e-08 0.0000000e+00 
0.0000000e+00 0.0000000e+00 0.0000000e+00 
0.0000000e+00 0.0000000e+00 0.0000000e+00 
-7.0519683e-08 1.0056309e-08 0.0000000e+00 
-5.7814577e-07 8.0625057e-08 0.0000000e+00 
-1.1748597e-06 -1.6014154e-07 0.0000000e+00 
-3.0834249e-07 8.7907772e-08 0.0000000e+00 
0.0000000e+00 0.0000000e+00 0.0000000e+00 
0.0000000e+00 0.0000000e+00 0.0000000e+00 
-9.7035525e-08 3.0364813e-08 0.0000000e+00 
-1.8147603e-06 1.6852070e-07 0.0000000e+00 
-2.5261929e-07 8.6089671e-08 0.0000000e+00 
-7.5313176e-07 2.3997285e-07 0.0000000e+00 
-3.8725957e-06 -9.2353838e-07 0.0000000e+00 
-5.7754107e-07 2.2868954e-07 0.0000000e+00 
0.0000000e+00 0.0000000e+00 0.0000000e+00 
-1.9140757e-06 8.7170662e-07 0.0000000e+00 
-5.6876652e-06 -2.1348769e-06 0.0000000e+00 
-1.0318745e-05 -5.3188883e-06 0.0000000e+00 
-1.2477474e-06 7.9301191e-07 0.0000000e+00 
0.0000000e+00 0.0000000e+00 0.0000000e+00 
-7.2022822e-06 -6.9163445e-07 0.0000000e+00 
2.9552482e-06 1.5623039e-06 0.0000000e+00 
-2.3953104e-05 -8.2776887e-06 0.0000000e+00 
-2.5431751e-05 -2.2427435e-05 0.0000000e+00 
0.0000000e+00 0.0000000e+00 0.0000000e+00 
1.3062851e-05 -8.7107392e-06 0.0000000e+00 
-2.1311194e-05 -1.0900853e-05 0.0000000e+00 
-7.2447627e-05 -8.6710512e-05 0.0000000e+00 
-3.9458660e-05 -6.4066371e-05 0.0000000e+00 
0.0000000e+00 0.0000000e+00 0.0000000e+00 
1.5527499e-04 -5.0046918e-05 0.0000000e+00 
-1.1770594e-04 -2.0511376e-04 0.0000000e+00 
-1.1850809e-04 -2.9265013e-04 0.0000000e+00 
-2.6783651e-05 -1.0663722e-04 0.0000000e+00 
3.6239263e-04 -8.7252614e-04 0.0000000e+00 
0.0000000e+00 0.0000000e+00 0.0000000e+00 
-2.5802231e-04 -1.0489502e-03 0.0000000e+00 
1.7827590e-06 -5.1414571e-04 0.0000000e+00 
2.8638658e-05 -1.0253394e-04 0.0000000e+00 
-4.2707739e-05 -3.8526310e-03 0.0000000e+00 
0.0000000e+00 0.0000000e+00 0.0000000e+00 
3.2051539e-04 -9.1326417e-04 0.0000000e+00 
1.1374307e-04 -2.4821569e-04 0.0000000e+00 
2.9313775e-05 -6.2028885e-05 0.0000000e+00 
-3.6997878e-04 -2.6915909e-04 0.0000000e+00 
6.1423605e-05 -6.0118127e-05 0.0000000e+00 
0.0000000e+00 0.0000000e+00 0.0000000e+00 
4.8618309e-05 -9.0263158e-05 0.0000000e+00 
8.3666537e-06 -3.8117782e-05 0.0000000e+00 
-6.7848057e-05 -1.8080009e-05 0.0000000e+00 
-3.0550942e-05 -7.2209885e-05 0.0000000e+00 
0.0000000e+00 0.0000000e+00 0.0000000e+00 
-9.7216798e-06 -7.8557889e-05 0.0000000e+00 
2.5951576e-06 -2.7318851e-05 0.0000000e+00 
9.3525123e-05 -3.2680959e-04 0.0000000e+00 
-6.8327623e-05 -2.3696499e-04 0.0000000e+00 
0.0000000e+00 0.0000000e+00 0.0000000e+00 
2.8257996e-06 -9.0655165e-05 0.0000000e+00 
9.2990931e-06 -2.3411747e-05 0.0000000e+00 
-8.3009345e-06 -1.2261292e-03 0.0000000e+00 
9.2515729e-05 -2.0909673e-04 0.0000000e+00 
0.0000000e+00 0.0000000e+00 0.0000000e+00 
2.4298844e-05 -4.6350822e-05 0.0000000e+00 
8.8394390e-06 -1.3698284e-05 0.0000000e+00 
-9.1515147e-05 -1.3188329e-04 0.0000000e+00 
3.6088717e-05 -2.9524635e-05 0.0000000e+00 
0.0000000e+00 0.0000000e+00 0.0000000e+00 
1.5137053e-05 -2.1139174e-05 0.0000000e+00 
6.3314383e-06 -5.7055818e-06 0.0000000e+00 
-3.8145561e-05 -7.8782923e-06 0.0000000e+00 
9.7284656e-06 -1.4845815e-06 0.0000000e+00 
0.0000000e+00 0.0000000e+00 0.0000000e+00 
4.7064809e-06 -1.7286375e-06 0.0000000e+00 
-4.5026645e-06 2.5950130e-06 0.0000000e+00 
2.3620828e-06 -8.6911655e-07 0.0000000e+00 
2.2445724e-06 8.9228473e-07 0.0000000e+00 
0.0000000e+00 0.0000000e+00 0.0000000e+00 
1.3932215e-06 -6.0969660e-07 0.0000000e+00 
-9.0266411e-07 9.6803763e-07 0.0000000e+00 
8.7591883e-07 -2.7142843e-07 0.0000000e+00 
6.2107085e-07 3.6630766e-07 0.0000000e+00 
0.0000000e+00 0.0000000e+00 0.0000000e+00 
4.0437743e-07 4.7706112e-07 0.0000000e+00 
2.3087640e-07 5.5268497e-08 0.0000000e+00 
0.0000000e+00 0.0000000e+00 0.0000000e+00 
1.6786890e-07 -9.8654587e-09 0.0000000e+00 
1.2335695e-07 4.4827953e-08 0.0000000e+00 
1.9424057e-07 9.6925980e-08 0.0000000e+00 
0.0000000e+00 0.0000000e+00 0.0000000e+00 
0.0000000e+00 0.0000000e+00 0.0000000e+00 
0.0000000e+00 0.0000000e+00 0.0000000e+00 
0.0000000e+00 0.0000000e+00 0.0000000e+00 
0.0000000e+00 0.0000000e+00 0.0000000e+00 
CELL_DATA 38
FIELD FieldData 0
