# vtk DataFile Version 4.0
vtk output
ASCII
DATASET UNSTRUCTURED_GRID
POINTS 101 float
0.0000000e+00 0.0000000e+00 0.0000000e+00 
0.0000000e+00 2.5000000e-01 0.0000000e+00 
2.5000000e-01 0.0000000e+00 0.0000000e+00 
2.5000000e-01 2.5000000e-01 0.0000000e+00 
0.0000000e+00 5.0000000e-01 0.0000000e+00 
5.0000000e-01 0.0000000e+00 0.0000000e+00 
3.5416666e-01 5.0558227e-01 0.0000000e+00 
6.0416669e-01 2.5558227e-01 0.0000000e+00 
0.0000000e+00 7.5000000e-01 0.0000000e+00 
7.5000000e-01 0.0000000e+00 0.0000000e+00 
2.5000000e-01 7.5000000e-01 0.0000000e+00 
7.0833331e-01 5.1116455e-01 0.0000000e+00 
8.5416669e-01 2.5558227e-01 0.0000000e+00 
6.0416669e-01 7.5558227e-01 0.0000000e+00 
0.0000000e+00 1.0000000e+00 0.0000000e+00 
1.0000000e+00 0.0000000e+00 0.0000000e+00 
2.5000000e-01 1.0000000e+00 0.0000000e+00 
9.7916669e-01 5.3907591e-01 0.0000000e+00 
5.0000000e-01 1.0000000e+00 0.0000000e+00 
8.5416669e-01 7.5558227e-01 0.0000000e+00 
1.1250000e+00 2.8349364e-01 0.0000000e+00 
7.5000000e-01 1.0000000e+00 0.0000000e+00 
1.2500000e+00 0.0000000e+00 0.0000000e+00 
1.1250000e+00 7.8349364e-01 0.0000000e+00 
1.2500000e+00 5.6698728e-01 0.0000000e+00 
1.3750000e+00 2.8349364e-01 0.0000000e+00 
1.0000000e+00 1.0000000e+00 0.0000000e+00 
1.5000000e+00 0.0000000e+00 0.0000000e+00 
1.3750000e+00 7.8349364e-01 0.0000000e+00 
1.2500000e+00 1.0000000e+00 0.0000000e+00 
1.5000000e+00 5.6698728e-01 0.0000000e+00 
1.6250000e+00 2.8349364e-01 0.0000000e+00 
1.7500000e+00 0.0000000e+00 0.0000000e+00 
1.5000000e+00 1.0000000e+00 0.0000000e+00 
1.6250000e+00 7.8349364e-01 0.0000000e+00 
1.7500000e+00 5.6698728e-01 0.0000000e+00 
1.8750000e+00 2.8349364e-01 0.0000000e+00 
2.0000000e+00 0.0000000e+00 0.0000000e+00 
1.7500000e+00 1.0000000e+00 0.0000000e+00 
1.8750000e+00 7.8349364e-01 0.0000000e+00 
2.0000000e+00 5.6698728e-01 0.0000000e+00 
2.1250000e+00 2.8349364e-01 0.0000000e+00 
2.0000000e+00 1.0000000e+00 0.0000000e+00 
2.2500000e+00 0.0000000e+00 0.0000000e+00 
2.1250000e+00 7.8349364e-01 0.0000000e+00 
2.2500000e+00 5.6698728e-01 0.0000000e+00 
2.3750000e+00 2.8349364e-01 0.0000000e+00 
2.2500000e+00 1.0000000e+00 0.0000000e+00 
2.5000000e+00 0.0000000e+00 0.0000000e+00 
2.3750000e+00 7.8349364e-01 0.0000000e+00 
2.5000000e+00 5.6698728e-01 0.0000000e+00 
2.6250000e+00 2.8349364e-01 0.0000000e+00 
2.5000000e+00 1.0000000e+00 0.0000000e+00 
2.6250000e+00 7.8349364e-01 0.0000000e+00 
2.7500000e+00 0.0000000e+00 0.0000000e+00 
2.7500000e+00 5.6698728e-01 0.0000000e+00 
2.8750000e+00 2.8349364e-01 0.0000000e+00 
2.7500000e+00 1.0000000e+00 0.0000000e+00 
2.8750000e+00 7.8349364e-01 0.0000000e+00 
3.0000000e+00 0.0000000e+00 0.0000000e+00 
3.0000000e+00 5.0000000e-01 0.0000000e+00 
3.1250000e+00 2.1650635e-01 0.0000000e+00 
3.0000000e+00 1.0000000e+00 0.0000000e+00 
3.1250000e+00 7.1650636e-01 0.0000000e+00 
3.2500000e+00 0.0000000e+00 0.0000000e+00 
3.2500000e+00 4.3301269e-01 0.0000000e+00 
3.3750000e+00 2.1650635e-01 0.0000000e+00 
3.2500000e+00 1.0000000e+00 0.0000000e+00 
3.3750000e+00 7.1650636e-01 0.0000000e+00 
3.5000000e+00 0.0000000e+00 0.0000000e+00 
3.5000000e+00 4.3301269e-01 0.0000000e+00 
3.6250000e+00 2.1650635e-01 0.0000000e+00 
3.5000000e+00 1.0000000e+00 0.0000000e+00 
3.6250000e+00 7.1650636e-01 0.0000000e+00 
3.7500000e+00 0.0000000e+00 0.0000000e+00 
3.7500000e+00 4.3301269e-01 0.0000000e+00 
3.8750000e+00 2.1650635e-01 0.0000000e+00 
3.7500000e+00 1.0000000e+00 0.0000000e+00 
3.8750000e+00 7.1650636e-01 0.0000000e+00 
4.0000000e+00 0.0000000e+00 0.0000000e+00 
4.0208335e+00 4.6092409e-01 0.0000000e+00 
4.0000000e+00 1.0000000e+00 0.0000000e+00 
4.1458335e+00 2.4441773e-01 0.0000000e+00 
4.1458335e+00 7.4441773e-01 0.0000000e+00 
4.2500000e+00 0.0000000e+00 0.0000000e+00 
4.2916665e+00 4.8883545e-01 0.0000000e+00 
4.2500000e+00 1.0000000e+00 0.0000000e+00 
4.3958335e+00 2.4441773e-01 0.0000000e+00 
4.3958335e+00 7.4441773e-01 0.0000000e+00 
4.5000000e+00 0.0000000e+00 0.0000000e+00 
4.5000000e+00 1.0000000e+00 0.0000000e+00 
4.6458335e+00 4.9441773e-01 0.0000000e+00 
4.7500000e+00 0.0000000e+00 0.0000000e+00 
4.7500000e+00 2.5000000e-01 0.0000000e+00 
4.7500000e+00 7.5000000e-01 0.0000000e+00 
4.7500000e+00 1.0000000e+00 0.0000000e+00 
5.0000000e+00 0.0000000e+00 0.0000000e+00 
5.0000000e+00 2.5000000e-01 0.0000000e+00 
5.0000000e+00 5.0000000e-01 0.0000000e+00 
5.0000000e+00 7.5000000e-01 0.0000000e+00 
5.0000000e+00 1.0000000e+00 0.0000000e+00 

CELLS 38 266
6 0 5 4 2 3 1
6 79 89 85 84 87 82
6 62 52 55 57 53 58
6 85 89 98 87 93 91
6 79 85 75 82 80 76
6 55 52 45 53 49 50
6 75 85 81 80 83 78
6 79 75 69 76 71 74
6 45 52 42 49 47 44
6 55 45 48 50 46 51
6 69 75 65 71 70 66
6 65 75 72 70 73 68
6 69 65 59 66 61 64
6 59 65 55 61 60 56
6 37 48 45 43 46 41
6 100 90 98 95 94 99
6 26 18 11 21 13 19
6 11 18 4 13 10 6
6 26 11 24 19 17 23
6 24 11 15 17 12 20
6 26 24 33 23 28 29
6 33 24 35 28 30 34
6 35 24 27 30 25 31
6 33 35 42 34 39 38
6 42 35 45 39 40 44
6 45 35 37 40 36 41
6 15 27 24 22 25 20
6 96 98 89 97 93 92
6 81 72 75 77 73 78
6 14 4 18 8 10 16
6 5 15 11 9 12 7
6 48 59 55 54 56 51
6 90 81 85 86 83 88
6 27 37 35 32 36 31
6 72 62 65 67 63 68
6 62 55 65 58 60 63
6 90 85 98 88 91 94
6 5 11 4 7 6 3

CELL_TYPES 38
22
22
22
22
22
22
22
22
22
22
22
22
22
22
22
22
22
22
22
22
22
22
22
22
22
22
22
22
22
22
22
22
22
22
22
22
22
22
POINT_DATA 101
FIELD FieldData 1
DISPLACEMENT 3 101  float
0.0000000e+00 0.0000000e+00 0.0000000e+00 
0.0000000e+00 0.0000000e+00 0.0000000e+00 
0.0000000e+00 0.0000000e+00 0.0000000e+00 
-3.8073825e-10 -1.0621703e-10 0.0000000e+00 
0.0000000e+00 0.0000000e+00 0.0000000e+00 
0.0000000e+00 0.0000000e+00 0.0000000e+00 
-8.0535451e-10 -9.9671861e-11 0.0000000e+00 
-1.8303099e-09 -2.7655761e-10 0.0000000e+00 
0.0000000e+00 0.0000000e+00 0.0000000e+00 
0.0000000e+00 0.0000000e+00 0.0000000e+00 
-5.8762312e-10 1.1006045e-11 0.0000000e+00 
-3.8569152e-09 2.0617895e-10 0.0000000e+00 
-5.1968829e-09 -7.2335471e-10 0.0000000e+00 
-2.8155238e-09 2.2874840e-10 0.0000000e+00 
0.0000000e+00 0.0000000e+00 0.0000000e+00 
0.0000000e+00 0.0000000e+00 0.0000000e+00 
-8.0831697e-10 1.9109274e-10 0.0000000e+00 
-1.0478789e-08 1.4818317e-10 0.0000000e+00 
-2.2136719e-09 4.5255968e-10 0.0000000e+00 
-7.1640183e-09 5.5822752e-10 0.0000000e+00 
-1.6529659e-08 -1.4534088e-09 0.0000000e+00 
-6.0121077e-09 1.2352593e-09 0.0000000e+00 
0.0000000e+00 0.0000000e+00 0.0000000e+00 
-2.0533239e-08 3.0873186e-09 0.0000000e+00 
-3.0668286e-08 5.4063629e-09 0.0000000e+00 
-4.7716107e-08 -2.2408744e-09 0.0000000e+00 
-1.5148826e-08 3.6313947e-09 0.0000000e+00 
0.0000000e+00 0.0000000e+00 0.0000000e+00 
-5.0436554e-08 8.1580405e-09 0.0000000e+00 
-3.8848242e-08 9.2167998e-09 0.0000000e+00 
-7.6124508e-08 1.1137645e-08 0.0000000e+00 
-1.3625758e-07 2.1006479e-10 0.0000000e+00 
0.0000000e+00 0.0000000e+00 0.0000000e+00 
-9.7505350e-08 2.3962768e-08 0.0000000e+00 
-1.2571758e-07 2.7597615e-08 0.0000000e+00 
-1.9888913e-07 8.5794760e-08 0.0000000e+00 
-4.1722552e-07 1.0631787e-08 0.0000000e+00 
0.0000000e+00 0.0000000e+00 0.0000000e+00 
-2.9495666e-07 6.6082407e-08 0.0000000e+00 
-2.6950792e-07 1.0100002e-07 0.0000000e+00 
-4.9400433e-07 1.8420802e-07 0.0000000e+00 
-1.2452130e-06 1.5262000e-08 0.0000000e+00 
-7.6297772e-07 3.0094273e-07 0.0000000e+00 
0.0000000e+00 0.0000000e+00 0.0000000e+00 
-5.7483942e-07 3.7376557e-07 0.0000000e+00 
-1.3672437e-06 8.0491787e-07 0.0000000e+00 
-3.8837002e-06 -1.1439541e-06 0.0000000e+00 
-2.4365293e-06 1.1062141e-06 0.0000000e+00 
0.0000000e+00 0.0000000e+00 0.0000000e+00 
-8.5963865e-07 2.7244894e-06 0.0000000e+00 
-1.0114349e-05 1.9340514e-06 0.0000000e+00 
-1.0682822e-05 -6.6885368e-06 0.0000000e+00 
-4.8991374e-06 8.7021699e-06 0.0000000e+00 
-5.8841329e-07 1.1346951e-05 0.0000000e+00 
0.0000000e+00 0.0000000e+00 0.0000000e+00 
-3.6673926e-05 -1.9149025e-05 0.0000000e+00 
-2.0240153e-05 -2.4471450e-05 0.0000000e+00 
4.7641803e-05 2.3166598e-05 0.0000000e+00 
-2.1270194e-05 2.7142563e-05 0.0000000e+00 
0.0000000e+00 0.0000000e+00 0.0000000e+00 
-4.5895551e-05 -9.0443682e-05 0.0000000e+00 
-1.3726204e-05 -3.8163598e-05 0.0000000e+00 
2.0671057e-04 6.3274427e-05 0.0000000e+00 
-2.1797973e-04 -2.6450653e-04 0.0000000e+00 
0.0000000e+00 0.0000000e+00 0.0000000e+00 
5.6691195e-05 -2.0184222e-04 0.0000000e+00 
-5.4525044e-06 -9.3108072e-05 0.0000000e+00 
3.1216926e-04 -1.2408542e-03 0.0000000e+00 
-3.2554762e-04 -1.0924941e-03 0.0000000e+00 
0.0000000e+00 0.0000000e+00 0.0000000e+00 
1.0310654e-05 -2.7199794e-04 0.0000000e+00 
9.0325038e-06 -9.0863985e-05 0.0000000e+00 
-4.4013272e-05 -5.1161163e-03 0.0000000e+00 
3.8119813e-04 -9.9702179e-04 0.0000000e+00 
0.0000000e+00 0.0000000e+00 0.0000000e+00 
-5.5943114e-05 -1.7918392e-04 0.0000000e+00 
1.0271593e-05 -4.0810530e-05 0.0000000e+00 
-2.9417436e-04 -5.6862697e-04 0.0000000e+00 
1.3850306e-04 -1.8988659e-04 0.0000000e+00 
0.0000000e+00 0.0000000e+00 0.0000000e+00 
2.2404613e-06 -7.8069512e-05 0.0000000e+00 
-8.2025508e-05 -5.7285142e-05 0.0000000e+00 
1.3004391e-06 -3.3208114e-05 0.0000000e+00 
-3.7092075e-05 -1.1117486e-04 0.0000000e+00 
0.0000000e+00 0.0000000e+00 0.0000000e+00 
1.4714462e-05 -1.0966817e-04 0.0000000e+00 
7.2192372e-05 -3.9918278e-04 0.0000000e+00 
5.6876393e-06 -3.0930496e-05 0.0000000e+00 
-1.0576770e-04 -4.7051784e-04 0.0000000e+00 
0.0000000e+00 0.0000000e+00 0.0000000e+00 
2.3709936e-05 -1.6239892e-03 0.0000000e+00 
4.5890869e-05 -8.5331674e-05 0.0000000e+00 
0.0000000e+00 0.0000000e+00 0.0000000e+00 
1.1402707e-05 -2.5468951e-05 0.0000000e+00 
1.2158663e-04 -1.7716760e-04 0.0000000e+00 
-1.6073816e-04 -2.2229915e-04 0.0000000e+00 
0.0000000e+00 0.0000000e+00 0.0000000e+00 
0.0000000e+00 0.0000000e+00 0.0000000e+00 
0.0000000e+00 0.0000000e+00 0.0000000e+00 
0.0000000e+00 0.0000000e+00 0.0000000e+00 
0.0000000e+00 0.0000000e+00 0.0000000e+00 
CELL_DATA 38
FIELD FieldData 0
