# vtk DataFile Version 4.0
vtk output
ASCII
DATASET UNSTRUCTURED_GRID
POINTS 101 float
0.0000000e+00 0.0000000e+00 0.0000000e+00 
0.0000000e+00 2.5000000e-01 0.0000000e+00 
2.5000000e-01 0.0000000e+00 0.0000000e+00 
2.5000000e-01 2.5000000e-01 0.0000000e+00 
0.0000000e+00 5.0000000e-01 0.0000000e+00 
5.0000000e-01 0.0000000e+00 0.0000000e+00 
3.5416666e-01 5.0558227e-01 0.0000000e+00 
6.0416669e-01 2.5558227e-01 0.0000000e+00 
0.0000000e+00 7.5000000e-01 0.0000000e+00 
7.5000000e-01 0.0000000e+00 0.0000000e+00 
2.5000000e-01 7.5000000e-01 0.0000000e+00 
7.0833331e-01 5.1116455e-01 0.0000000e+00 
8.5416669e-01 2.5558227e-01 0.0000000e+00 
6.0416669e-01 7.5558227e-01 0.0000000e+00 
0.0000000e+00 1.0000000e+00 0.0000000e+00 
1.0000000e+00 0.0000000e+00 0.0000000e+00 
2.5000000e-01 1.0000000e+00 0.0000000e+00 
9.7916669e-01 5.3907591e-01 0.0000000e+00 
5.0000000e-01 1.0000000e+00 0.0000000e+00 
8.5416669e-01 7.5558227e-01 0.0000000e+00 
1.1250000e+00 2.8349364e-01 0.0000000e+00 
7.5000000e-01 1.0000000e+00 0.0000000e+00 
1.2500000e+00 0.0000000e+00 0.0000000e+00 
1.1250000e+00 7.8349364e-01 0.0000000e+00 
1.2500000e+00 5.6698728e-01 0.0000000e+00 
1.3750000e+00 2.8349364e-01 0.0000000e+00 
1.0000000e+00 1.0000000e+00 0.0000000e+00 
1.5000000e+00 0.0000000e+00 0.0000000e+00 
1.3750000e+00 7.8349364e-01 0.0000000e+00 
1.2500000e+00 1.0000000e+00 0.0000000e+00 
1.5000000e+00 5.6698728e-01 0.0000000e+00 
1.6250000e+00 2.8349364e-01 0.0000000e+00 
1.7500000e+00 0.0000000e+00 0.0000000e+00 
1.5000000e+00 1.0000000e+00 0.0000000e+00 
1.6250000e+00 7.8349364e-01 0.0000000e+00 
1.7500000e+00 5.6698728e-01 0.0000000e+00 
1.8750000e+00 2.8349364e-01 0.0000000e+00 
2.0000000e+00 0.0000000e+00 0.0000000e+00 
1.7500000e+00 1.0000000e+00 0.0000000e+00 
1.8750000e+00 7.8349364e-01 0.0000000e+00 
2.0000000e+00 5.6698728e-01 0.0000000e+00 
2.1250000e+00 2.8349364e-01 0.0000000e+00 
2.0000000e+00 1.0000000e+00 0.0000000e+00 
2.2500000e+00 0.0000000e+00 0.0000000e+00 
2.1250000e+00 7.8349364e-01 0.0000000e+00 
2.2500000e+00 5.6698728e-01 0.0000000e+00 
2.3750000e+00 2.8349364e-01 0.0000000e+00 
2.2500000e+00 1.0000000e+00 0.0000000e+00 
2.5000000e+00 0.0000000e+00 0.0000000e+00 
2.3750000e+00 7.8349364e-01 0.0000000e+00 
2.5000000e+00 5.6698728e-01 0.0000000e+00 
2.6250000e+00 2.8349364e-01 0.0000000e+00 
2.5000000e+00 1.0000000e+00 0.0000000e+00 
2.6250000e+00 7.8349364e-01 0.0000000e+00 
2.7500000e+00 0.0000000e+00 0.0000000e+00 
2.7500000e+00 5.6698728e-01 0.0000000e+00 
2.8750000e+00 2.8349364e-01 0.0000000e+00 
2.7500000e+00 1.0000000e+00 0.0000000e+00 
2.8750000e+00 7.8349364e-01 0.0000000e+00 
3.0000000e+00 0.0000000e+00 0.0000000e+00 
3.0000000e+00 5.0000000e-01 0.0000000e+00 
3.1250000e+00 2.1650635e-01 0.0000000e+00 
3.0000000e+00 1.0000000e+00 0.0000000e+00 
3.1250000e+00 7.1650636e-01 0.0000000e+00 
3.2500000e+00 0.0000000e+00 0.0000000e+00 
3.2500000e+00 4.3301269e-01 0.0000000e+00 
3.3750000e+00 2.1650635e-01 0.0000000e+00 
3.2500000e+00 1.0000000e+00 0.0000000e+00 
3.3750000e+00 7.1650636e-01 0.0000000e+00 
3.5000000e+00 0.0000000e+00 0.0000000e+00 
3.5000000e+00 4.3301269e-01 0.0000000e+00 
3.6250000e+00 2.1650635e-01 0.0000000e+00 
3.5000000e+00 1.0000000e+00 0.0000000e+00 
3.6250000e+00 7.1650636e-01 0.0000000e+00 
3.7500000e+00 0.0000000e+00 0.0000000e+00 
3.7500000e+00 4.3301269e-01 0.0000000e+00 
3.8750000e+00 2.1650635e-01 0.0000000e+00 
3.7500000e+00 1.0000000e+00 0.0000000e+00 
3.8750000e+00 7.1650636e-01 0.0000000e+00 
4.0000000e+00 0.0000000e+00 0.0000000e+00 
4.0208335e+00 4.6092409e-01 0.0000000e+00 
4.0000000e+00 1.0000000e+00 0.0000000e+00 
4.1458335e+00 2.4441773e-01 0.0000000e+00 
4.1458335e+00 7.4441773e-01 0.0000000e+00 
4.2500000e+00 0.0000000e+00 0.0000000e+00 
4.2916665e+00 4.8883545e-01 0.0000000e+00 
4.2500000e+00 1.0000000e+00 0.0000000e+00 
4.3958335e+00 2.4441773e-01 0.0000000e+00 
4.3958335e+00 7.4441773e-01 0.0000000e+00 
4.5000000e+00 0.0000000e+00 0.0000000e+00 
4.5000000e+00 1.0000000e+00 0.0000000e+00 
4.6458335e+00 4.9441773e-01 0.0000000e+00 
4.7500000e+00 0.0000000e+00 0.0000000e+00 
4.7500000e+00 2.5000000e-01 0.0000000e+00 
4.7500000e+00 7.5000000e-01 0.0000000e+00 
4.7500000e+00 1.0000000e+00 0.0000000e+00 
5.0000000e+00 0.0000000e+00 0.0000000e+00 
5.0000000e+00 2.5000000e-01 0.0000000e+00 
5.0000000e+00 5.0000000e-01 0.0000000e+00 
5.0000000e+00 7.5000000e-01 0.0000000e+00 
5.0000000e+00 1.0000000e+00 0.0000000e+00 

CELLS 38 266
6 0 5 4 2 3 1
6 79 89 85 84 87 82
6 62 52 55 57 53 58
6 85 89 98 87 93 91
6 79 85 75 82 80 76
6 55 52 45 53 49 50
6 75 85 81 80 83 78
6 79 75 69 76 71 74
6 45 52 42 49 47 44
6 55 45 48 50 46 51
6 69 75 65 71 70 66
6 65 75 72 70 73 68
6 69 65 59 66 61 64
6 59 65 55 61 60 56
6 37 48 45 43 46 41
6 100 90 98 95 94 99
6 26 18 11 21 13 19
6 11 18 4 13 10 6
6 26 11 24 19 17 23
6 24 11 15 17 12 20
6 26 24 33 23 28 29
6 33 24 35 28 30 34
6 35 24 27 30 25 31
6 33 35 42 34 39 38
6 42 35 45 39 40 44
6 45 35 37 40 36 41
6 15 27 24 22 25 20
6 96 98 89 97 93 92
6 81 72 75 77 73 78
6 14 4 18 8 10 16
6 5 15 11 9 12 7
6 48 59 55 54 56 51
6 90 81 85 86 83 88
6 27 37 35 32 36 31
6 72 62 65 67 63 68
6 62 55 65 58 60 63
6 90 85 98 88 91 94
6 5 11 4 7 6 3

CELL_TYPES 38
22
22
22
22
22
22
22
22
22
22
22
22
22
22
22
22
22
22
22
22
22
22
22
22
22
22
22
22
22
22
22
22
22
22
22
22
22
22
POINT_DATA 101
FIELD FieldData 1
DISPLACEMENT 3 101  float
0.0000000e+00 0.0000000e+00 0.0000000e+00 
0.0000000e+00 0.0000000e+00 0.0000000e+00 
0.0000000e+00 0.0000000e+00 0.0000000e+00 
-3.9205920e-06 3.9278865e-07 0.0000000e+00 
0.0000000e+00 0.0000000e+00 0.0000000e+00 
0.0000000e+00 0.0000000e+00 0.0000000e+00 
-5.9126673e-06 4.2093466e-06 0.0000000e+00 
-1.5124038e-05 6.7107503e-06 0.0000000e+00 
0.0000000e+00 0.0000000e+00 0.0000000e+00 
0.0000000e+00 0.0000000e+00 0.0000000e+00 
-4.2553488e-06 1.6625903e-06 0.0000000e+00 
-1.7932958e-05 2.4979328e-05 0.0000000e+00 
-3.6718164e-05 1.3256237e-05 0.0000000e+00 
-6.3273378e-06 2.1772867e-05 0.0000000e+00 
0.0000000e+00 0.0000000e+00 0.0000000e+00 
0.0000000e+00 0.0000000e+00 0.0000000e+00 
-7.8480725e-06 3.0388728e-06 0.0000000e+00 
-3.9829778e-05 4.3058768e-05 0.0000000e+00 
-1.5153571e-05 1.2336916e-05 0.0000000e+00 
-2.9416437e-06 5.1356943e-05 0.0000000e+00 
-8.5515756e-05 7.2021999e-06 0.0000000e+00 
-4.5433771e-06 3.8757673e-05 0.0000000e+00 
0.0000000e+00 0.0000000e+00 0.0000000e+00 
1.4138001e-05 5.0537026e-05 0.0000000e+00 
-7.0398077e-05 1.5156861e-05 0.0000000e+00 
-1.5580926e-04 -3.9880386e-05 0.0000000e+00 
3.2166408e-05 5.6705936e-05 0.0000000e+00 
0.0000000e+00 0.0000000e+00 0.0000000e+00 
3.4217890e-05 -6.2958165e-06 0.0000000e+00 
1.1779287e-04 1.9503321e-05 0.0000000e+00 
-1.4882461e-04 -8.0736543e-05 0.0000000e+00 
-2.6475752e-04 -1.4339830e-04 0.0000000e+00 
0.0000000e+00 0.0000000e+00 0.0000000e+00 
2.4752109e-04 -7.9370111e-05 0.0000000e+00 
5.1681276e-05 -1.6973101e-04 0.0000000e+00 
-2.7717830e-04 -3.4812919e-04 0.0000000e+00 
-3.9372241e-04 -3.7036321e-04 0.0000000e+00 
0.0000000e+00 0.0000000e+00 0.0000000e+00 
5.4901576e-04 -3.8569374e-04 0.0000000e+00 
4.2905649e-05 -6.2758708e-04 0.0000000e+00 
-4.3358325e-04 -9.4398018e-04 0.0000000e+00 
-4.7765896e-04 -7.7123556e-04 0.0000000e+00 
9.6151495e-04 -1.1063340e-03 0.0000000e+00 
0.0000000e+00 0.0000000e+00 0.0000000e+00 
-9.5463765e-05 -1.7077387e-03 0.0000000e+00 
-5.5050733e-04 -2.0156028e-03 0.0000000e+00 
-3.8846524e-04 -1.2400144e-03 0.0000000e+00 
1.2883901e-03 -2.9252751e-03 0.0000000e+00 
0.0000000e+00 0.0000000e+00 0.0000000e+00 
-3.9627647e-04 -4.1812654e-03 0.0000000e+00 
-3.0063975e-04 -3.2243694e-03 0.0000000e+00 
-5.0321942e-05 -1.4623704e-03 0.0000000e+00 
7.4280141e-04 -8.2021151e-03 0.0000000e+00 
1.8867884e-04 -5.5245445e-03 0.0000000e+00 
0.0000000e+00 0.0000000e+00 0.0000000e+00 
2.1220148e-04 -3.1716872e-03 0.0000000e+00 
2.5367094e-04 -1.2755777e-03 0.0000000e+00 
-6.3215126e-04 -6.6835913e-03 0.0000000e+00 
3.8086405e-04 -3.6251419e-03 0.0000000e+00 
0.0000000e+00 0.0000000e+00 0.0000000e+00 
4.0325237e-04 -1.8905252e-03 0.0000000e+00 
2.6226364e-04 -7.1817869e-04 0.0000000e+00 
-9.9403446e-04 -2.1901701e-03 0.0000000e+00 
1.0976656e-04 -1.8048732e-03 0.0000000e+00 
0.0000000e+00 0.0000000e+00 0.0000000e+00 
3.4731615e-04 -1.1919993e-03 0.0000000e+00 
2.3116781e-04 -5.5986468e-04 0.0000000e+00 
-4.8986857e-04 -1.8219289e-03 0.0000000e+00 
-8.7817796e-05 -1.6821423e-03 0.0000000e+00 
0.0000000e+00 0.0000000e+00 0.0000000e+00 
2.3101515e-04 -9.8274776e-04 0.0000000e+00 
2.1354671e-04 -4.3653045e-04 0.0000000e+00 
-2.7111254e-04 -2.9206469e-03 0.0000000e+00 
7.3289943e-05 -1.6771656e-03 0.0000000e+00 
0.0000000e+00 0.0000000e+00 0.0000000e+00 
2.4858015e-04 -7.6540752e-04 0.0000000e+00 
2.1670132e-04 -2.9600572e-04 0.0000000e+00 
-4.8064429e-04 -2.1812923e-03 0.0000000e+00 
1.7004543e-04 -9.9829142e-04 0.0000000e+00 
0.0000000e+00 0.0000000e+00 0.0000000e+00 
2.6756831e-04 -4.3380147e-04 0.0000000e+00 
-5.2262773e-04 -5.7838450e-04 0.0000000e+00 
1.9388786e-04 -1.7401915e-04 0.0000000e+00 
2.4448182e-05 -3.1634705e-04 0.0000000e+00 
0.0000000e+00 0.0000000e+00 0.0000000e+00 
1.7769499e-04 -1.6622915e-04 0.0000000e+00 
-2.9967321e-04 -2.2098803e-04 0.0000000e+00 
1.2636423e-04 -7.6379722e-05 0.0000000e+00 
2.8490520e-06 -9.4734729e-05 0.0000000e+00 
0.0000000e+00 0.0000000e+00 0.0000000e+00 
-1.3179083e-04 -5.7215158e-05 0.0000000e+00 
6.5702785e-05 -2.4050833e-05 0.0000000e+00 
0.0000000e+00 0.0000000e+00 0.0000000e+00 
4.3625038e-05 -1.5689628e-05 0.0000000e+00 
-4.9899595e-06 -2.1798951e-06 0.0000000e+00 
-5.4968736e-05 -1.2545442e-05 0.0000000e+00 
0.0000000e+00 0.0000000e+00 0.0000000e+00 
0.0000000e+00 0.0000000e+00 0.0000000e+00 
0.0000000e+00 0.0000000e+00 0.0000000e+00 
0.0000000e+00 0.0000000e+00 0.0000000e+00 
0.0000000e+00 0.0000000e+00 0.0000000e+00 
CELL_DATA 38
FIELD FieldData 0
