# vtk DataFile Version 4.0
vtk output
ASCII
DATASET UNSTRUCTURED_GRID
POINTS 101 float
0.0000000e+00 0.0000000e+00 0.0000000e+00 
0.0000000e+00 2.5000000e-01 0.0000000e+00 
2.5000000e-01 0.0000000e+00 0.0000000e+00 
2.5000000e-01 2.5000000e-01 0.0000000e+00 
0.0000000e+00 5.0000000e-01 0.0000000e+00 
5.0000000e-01 0.0000000e+00 0.0000000e+00 
3.5416666e-01 5.0558227e-01 0.0000000e+00 
6.0416669e-01 2.5558227e-01 0.0000000e+00 
0.0000000e+00 7.5000000e-01 0.0000000e+00 
7.5000000e-01 0.0000000e+00 0.0000000e+00 
2.5000000e-01 7.5000000e-01 0.0000000e+00 
7.0833331e-01 5.1116455e-01 0.0000000e+00 
8.5416669e-01 2.5558227e-01 0.0000000e+00 
6.0416669e-01 7.5558227e-01 0.0000000e+00 
0.0000000e+00 1.0000000e+00 0.0000000e+00 
1.0000000e+00 0.0000000e+00 0.0000000e+00 
2.5000000e-01 1.0000000e+00 0.0000000e+00 
9.7916669e-01 5.3907591e-01 0.0000000e+00 
5.0000000e-01 1.0000000e+00 0.0000000e+00 
8.5416669e-01 7.5558227e-01 0.0000000e+00 
1.1250000e+00 2.8349364e-01 0.0000000e+00 
7.5000000e-01 1.0000000e+00 0.0000000e+00 
1.2500000e+00 0.0000000e+00 0.0000000e+00 
1.1250000e+00 7.8349364e-01 0.0000000e+00 
1.2500000e+00 5.6698728e-01 0.0000000e+00 
1.3750000e+00 2.8349364e-01 0.0000000e+00 
1.0000000e+00 1.0000000e+00 0.0000000e+00 
1.5000000e+00 0.0000000e+00 0.0000000e+00 
1.3750000e+00 7.8349364e-01 0.0000000e+00 
1.2500000e+00 1.0000000e+00 0.0000000e+00 
1.5000000e+00 5.6698728e-01 0.0000000e+00 
1.6250000e+00 2.8349364e-01 0.0000000e+00 
1.7500000e+00 0.0000000e+00 0.0000000e+00 
1.5000000e+00 1.0000000e+00 0.0000000e+00 
1.6250000e+00 7.8349364e-01 0.0000000e+00 
1.7500000e+00 5.6698728e-01 0.0000000e+00 
1.8750000e+00 2.8349364e-01 0.0000000e+00 
2.0000000e+00 0.0000000e+00 0.0000000e+00 
1.7500000e+00 1.0000000e+00 0.0000000e+00 
1.8750000e+00 7.8349364e-01 0.0000000e+00 
2.0000000e+00 5.6698728e-01 0.0000000e+00 
2.1250000e+00 2.8349364e-01 0.0000000e+00 
2.0000000e+00 1.0000000e+00 0.0000000e+00 
2.2500000e+00 0.0000000e+00 0.0000000e+00 
2.1250000e+00 7.8349364e-01 0.0000000e+00 
2.2500000e+00 5.6698728e-01 0.0000000e+00 
2.3750000e+00 2.8349364e-01 0.0000000e+00 
2.2500000e+00 1.0000000e+00 0.0000000e+00 
2.5000000e+00 0.0000000e+00 0.0000000e+00 
2.3750000e+00 7.8349364e-01 0.0000000e+00 
2.5000000e+00 5.6698728e-01 0.0000000e+00 
2.6250000e+00 2.8349364e-01 0.0000000e+00 
2.5000000e+00 1.0000000e+00 0.0000000e+00 
2.6250000e+00 7.8349364e-01 0.0000000e+00 
2.7500000e+00 0.0000000e+00 0.0000000e+00 
2.7500000e+00 5.6698728e-01 0.0000000e+00 
2.8750000e+00 2.8349364e-01 0.0000000e+00 
2.7500000e+00 1.0000000e+00 0.0000000e+00 
2.8750000e+00 7.8349364e-01 0.0000000e+00 
3.0000000e+00 0.0000000e+00 0.0000000e+00 
3.0000000e+00 5.0000000e-01 0.0000000e+00 
3.1250000e+00 2.1650635e-01 0.0000000e+00 
3.0000000e+00 1.0000000e+00 0.0000000e+00 
3.1250000e+00 7.1650636e-01 0.0000000e+00 
3.2500000e+00 0.0000000e+00 0.0000000e+00 
3.2500000e+00 4.3301269e-01 0.0000000e+00 
3.3750000e+00 2.1650635e-01 0.0000000e+00 
3.2500000e+00 1.0000000e+00 0.0000000e+00 
3.3750000e+00 7.1650636e-01 0.0000000e+00 
3.5000000e+00 0.0000000e+00 0.0000000e+00 
3.5000000e+00 4.3301269e-01 0.0000000e+00 
3.6250000e+00 2.1650635e-01 0.0000000e+00 
3.5000000e+00 1.0000000e+00 0.0000000e+00 
3.6250000e+00 7.1650636e-01 0.0000000e+00 
3.7500000e+00 0.0000000e+00 0.0000000e+00 
3.7500000e+00 4.3301269e-01 0.0000000e+00 
3.8750000e+00 2.1650635e-01 0.0000000e+00 
3.7500000e+00 1.0000000e+00 0.0000000e+00 
3.8750000e+00 7.1650636e-01 0.0000000e+00 
4.0000000e+00 0.0000000e+00 0.0000000e+00 
4.0208335e+00 4.6092409e-01 0.0000000e+00 
4.0000000e+00 1.0000000e+00 0.0000000e+00 
4.1458335e+00 2.4441773e-01 0.0000000e+00 
4.1458335e+00 7.4441773e-01 0.0000000e+00 
4.2500000e+00 0.0000000e+00 0.0000000e+00 
4.2916665e+00 4.8883545e-01 0.0000000e+00 
4.2500000e+00 1.0000000e+00 0.0000000e+00 
4.3958335e+00 2.4441773e-01 0.0000000e+00 
4.3958335e+00 7.4441773e-01 0.0000000e+00 
4.5000000e+00 0.0000000e+00 0.0000000e+00 
4.5000000e+00 1.0000000e+00 0.0000000e+00 
4.6458335e+00 4.9441773e-01 0.0000000e+00 
4.7500000e+00 0.0000000e+00 0.0000000e+00 
4.7500000e+00 2.5000000e-01 0.0000000e+00 
4.7500000e+00 7.5000000e-01 0.0000000e+00 
4.7500000e+00 1.0000000e+00 0.0000000e+00 
5.0000000e+00 0.0000000e+00 0.0000000e+00 
5.0000000e+00 2.5000000e-01 0.0000000e+00 
5.0000000e+00 5.0000000e-01 0.0000000e+00 
5.0000000e+00 7.5000000e-01 0.0000000e+00 
5.0000000e+00 1.0000000e+00 0.0000000e+00 

CELLS 38 266
6 0 5 4 2 3 1
6 79 89 85 84 87 82
6 62 52 55 57 53 58
6 85 89 98 87 93 91
6 79 85 75 82 80 76
6 55 52 45 53 49 50
6 75 85 81 80 83 78
6 79 75 69 76 71 74
6 45 52 42 49 47 44
6 55 45 48 50 46 51
6 69 75 65 71 70 66
6 65 75 72 70 73 68
6 69 65 59 66 61 64
6 59 65 55 61 60 56
6 37 48 45 43 46 41
6 100 90 98 95 94 99
6 26 18 11 21 13 19
6 11 18 4 13 10 6
6 26 11 24 19 17 23
6 24 11 15 17 12 20
6 26 24 33 23 28 29
6 33 24 35 28 30 34
6 35 24 27 30 25 31
6 33 35 42 34 39 38
6 42 35 45 39 40 44
6 45 35 37 40 36 41
6 15 27 24 22 25 20
6 96 98 89 97 93 92
6 81 72 75 77 73 78
6 14 4 18 8 10 16
6 5 15 11 9 12 7
6 48 59 55 54 56 51
6 90 81 85 86 83 88
6 27 37 35 32 36 31
6 72 62 65 67 63 68
6 62 55 65 58 60 63
6 90 85 98 88 91 94
6 5 11 4 7 6 3

CELL_TYPES 38
22
22
22
22
22
22
22
22
22
22
22
22
22
22
22
22
22
22
22
22
22
22
22
22
22
22
22
22
22
22
22
22
22
22
22
22
22
22
POINT_DATA 101
FIELD FieldData 1
DISPLACEMENT 3 101  float
0.0000000e+00 0.0000000e+00 0.0000000e+00 
0.0000000e+00 0.0000000e+00 0.0000000e+00 
0.0000000e+00 0.0000000e+00 0.0000000e+00 
-3.5221072e-13 -1.0808289e-13 0.0000000e+00 
0.0000000e+00 0.0000000e+00 0.0000000e+00 
0.0000000e+00 0.0000000e+00 0.0000000e+00 
-7.7471693e-13 -1.4165764e-13 0.0000000e+00 
-1.5993983e-12 -4.0548606e-13 0.0000000e+00 
0.0000000e+00 0.0000000e+00 0.0000000e+00 
0.0000000e+00 0.0000000e+00 0.0000000e+00 
-5.7815563e-13 -2.6548488e-15 0.0000000e+00 
-3.6601009e-12 -3.6880362e-13 0.0000000e+00 
-4.2587934e-12 -1.0768935e-12 0.0000000e+00 
-2.8339536e-12 -1.1569128e-14 0.0000000e+00 
0.0000000e+00 0.0000000e+00 0.0000000e+00 
0.0000000e+00 0.0000000e+00 0.0000000e+00 
-7.8474190e-13 1.7233007e-13 0.0000000e+00 
-1.0356836e-11 -1.3013924e-12 0.0000000e+00 
-2.1783964e-12 3.5364208e-13 0.0000000e+00 
-7.4299022e-12 -7.5599127e-14 0.0000000e+00 
-1.2761373e-11 -3.1999438e-12 0.0000000e+00 
-6.0603840e-12 9.5589845e-13 0.0000000e+00 
0.0000000e+00 0.0000000e+00 0.0000000e+00 
-2.1893305e-11 1.5366288e-13 0.0000000e+00 
-3.0445427e-11 -3.1897978e-12 0.0000000e+00 
-3.3598586e-11 -8.8365166e-12 0.0000000e+00 
-1.5665129e-11 2.7513950e-12 0.0000000e+00 
0.0000000e+00 0.0000000e+00 0.0000000e+00 
-5.7266844e-11 4.3941985e-13 0.0000000e+00 
-4.1575618e-11 6.3015947e-12 0.0000000e+00 
-8.0957401e-11 -9.5212822e-12 0.0000000e+00 
-8.6500078e-11 -2.3317058e-11 0.0000000e+00 
0.0000000e+00 0.0000000e+00 0.0000000e+00 
-1.0899143e-10 1.8848350e-11 0.0000000e+00 
-1.5209488e-10 -2.8052411e-13 0.0000000e+00 
-2.1139668e-10 -2.7318887e-11 0.0000000e+00 
-2.2570108e-10 -6.6172630e-11 0.0000000e+00 
0.0000000e+00 0.0000000e+00 0.0000000e+00 
-2.8722671e-10 4.2599160e-11 0.0000000e+00 
-4.0065903e-10 -7.7207620e-13 0.0000000e+00 
-5.6975835e-10 -7.8558077e-11 0.0000000e+00 
-5.7278332e-10 -1.8010808e-10 0.0000000e+00 
-7.5287804e-10 1.2534511e-10 0.0000000e+00 
0.0000000e+00 0.0000000e+00 0.0000000e+00 
-1.0688667e-09 -1.5958776e-11 0.0000000e+00 
-1.4935783e-09 -2.7104446e-10 0.0000000e+00 
-1.4510073e-09 -5.1636689e-10 0.0000000e+00 
-1.9052984e-09 2.7089717e-10 0.0000000e+00 
0.0000000e+00 0.0000000e+00 0.0000000e+00 
-2.8721474e-09 -1.1925302e-10 0.0000000e+00 
-4.0861878e-09 -7.5957529e-10 0.0000000e+00 
-3.5418013e-09 -1.3283328e-09 0.0000000e+00 
-4.9979065e-09 3.9997625e-10 0.0000000e+00 
-7.6728606e-09 -6.9017098e-10 0.0000000e+00 
0.0000000e+00 0.0000000e+00 0.0000000e+00 
-1.0599702e-08 -2.1501121e-09 0.0000000e+00 
-8.6304217e-09 -3.4042411e-09 0.0000000e+00 
-1.4194997e-08 4.9128679e-10 0.0000000e+00 
-2.0028699e-08 -3.5528704e-09 0.0000000e+00 
0.0000000e+00 0.0000000e+00 0.0000000e+00 
-2.5201993e-08 -5.7514637e-09 0.0000000e+00 
-1.4344610e-08 -2.5954781e-09 0.0000000e+00 
-4.0930978e-08 -6.4282060e-09 0.0000000e+00 
-4.6151740e-08 -1.5178424e-08 0.0000000e+00 
0.0000000e+00 0.0000000e+00 0.0000000e+00 
-5.3968144e-08 1.0944254e-08 0.0000000e+00 
-4.0289734e-08 2.5560551e-09 0.0000000e+00 
-1.7022252e-07 -1.2295506e-08 0.0000000e+00 
-9.6628114e-08 -2.6505024e-08 0.0000000e+00 
0.0000000e+00 0.0000000e+00 0.0000000e+00 
-1.3117440e-07 3.4993509e-08 0.0000000e+00 
-1.1229984e-07 1.0010594e-07 0.0000000e+00 
-4.8598253e-07 -5.7764584e-08 0.0000000e+00 
-1.6497050e-07 -1.1075816e-09 0.0000000e+00 
0.0000000e+00 0.0000000e+00 0.0000000e+00 
-3.1145822e-07 5.7556031e-07 0.0000000e+00 
-5.6609969e-07 1.2991097e-07 0.0000000e+00 
-2.2498707e-06 2.8782199e-07 0.0000000e+00 
-4.8726698e-09 8.0577695e-07 0.0000000e+00 
0.0000000e+00 0.0000000e+00 0.0000000e+00 
-2.2199915e-06 1.2390483e-06 0.0000000e+00 
-5.7220514e-06 3.8260864e-06 0.0000000e+00 
-2.0929970e-06 3.9980012e-08 0.0000000e+00 
4.9273416e-07 6.6927300e-06 0.0000000e+00 
0.0000000e+00 0.0000000e+00 0.0000000e+00 
-9.1480297e-06 2.9082096e-06 0.0000000e+00 
-4.6955647e-06 1.6964850e-05 0.0000000e+00 
-6.1820037e-06 -4.5432221e-06 0.0000000e+00 
-1.6097326e-06 3.8804108e-05 0.0000000e+00 
0.0000000e+00 0.0000000e+00 0.0000000e+00 
1.5955962e-05 1.0483179e-04 0.0000000e+00 
-2.7116683e-05 -4.3859702e-05 0.0000000e+00 
0.0000000e+00 0.0000000e+00 0.0000000e+00 
6.5641234e-07 -8.2778879e-06 0.0000000e+00 
-4.8220245e-05 -1.6431141e-04 0.0000000e+00 
9.9660130e-05 -6.0818699e-04 0.0000000e+00 
0.0000000e+00 0.0000000e+00 0.0000000e+00 
0.0000000e+00 0.0000000e+00 0.0000000e+00 
0.0000000e+00 0.0000000e+00 0.0000000e+00 
0.0000000e+00 0.0000000e+00 0.0000000e+00 
0.0000000e+00 0.0000000e+00 0.0000000e+00 
CELL_DATA 38
FIELD FieldData 0
