# vtk DataFile Version 4.0
vtk output
ASCII
DATASET UNSTRUCTURED_GRID
POINTS 101 float
0.0000000e+00 0.0000000e+00 0.0000000e+00 
0.0000000e+00 2.5000000e-01 0.0000000e+00 
2.5000000e-01 0.0000000e+00 0.0000000e+00 
2.5000000e-01 2.5000000e-01 0.0000000e+00 
0.0000000e+00 5.0000000e-01 0.0000000e+00 
5.0000000e-01 0.0000000e+00 0.0000000e+00 
3.5416666e-01 5.0558227e-01 0.0000000e+00 
6.0416669e-01 2.5558227e-01 0.0000000e+00 
0.0000000e+00 7.5000000e-01 0.0000000e+00 
7.5000000e-01 0.0000000e+00 0.0000000e+00 
2.5000000e-01 7.5000000e-01 0.0000000e+00 
7.0833331e-01 5.1116455e-01 0.0000000e+00 
8.5416669e-01 2.5558227e-01 0.0000000e+00 
6.0416669e-01 7.5558227e-01 0.0000000e+00 
0.0000000e+00 1.0000000e+00 0.0000000e+00 
1.0000000e+00 0.0000000e+00 0.0000000e+00 
2.5000000e-01 1.0000000e+00 0.0000000e+00 
9.7916669e-01 5.3907591e-01 0.0000000e+00 
5.0000000e-01 1.0000000e+00 0.0000000e+00 
8.5416669e-01 7.5558227e-01 0.0000000e+00 
1.1250000e+00 2.8349364e-01 0.0000000e+00 
7.5000000e-01 1.0000000e+00 0.0000000e+00 
1.2500000e+00 0.0000000e+00 0.0000000e+00 
1.1250000e+00 7.8349364e-01 0.0000000e+00 
1.2500000e+00 5.6698728e-01 0.0000000e+00 
1.3750000e+00 2.8349364e-01 0.0000000e+00 
1.0000000e+00 1.0000000e+00 0.0000000e+00 
1.5000000e+00 0.0000000e+00 0.0000000e+00 
1.3750000e+00 7.8349364e-01 0.0000000e+00 
1.2500000e+00 1.0000000e+00 0.0000000e+00 
1.5000000e+00 5.6698728e-01 0.0000000e+00 
1.6250000e+00 2.8349364e-01 0.0000000e+00 
1.7500000e+00 0.0000000e+00 0.0000000e+00 
1.5000000e+00 1.0000000e+00 0.0000000e+00 
1.6250000e+00 7.8349364e-01 0.0000000e+00 
1.7500000e+00 5.6698728e-01 0.0000000e+00 
1.8750000e+00 2.8349364e-01 0.0000000e+00 
2.0000000e+00 0.0000000e+00 0.0000000e+00 
1.7500000e+00 1.0000000e+00 0.0000000e+00 
1.8750000e+00 7.8349364e-01 0.0000000e+00 
2.0000000e+00 5.6698728e-01 0.0000000e+00 
2.1250000e+00 2.8349364e-01 0.0000000e+00 
2.0000000e+00 1.0000000e+00 0.0000000e+00 
2.2500000e+00 0.0000000e+00 0.0000000e+00 
2.1250000e+00 7.8349364e-01 0.0000000e+00 
2.2500000e+00 5.6698728e-01 0.0000000e+00 
2.3750000e+00 2.8349364e-01 0.0000000e+00 
2.2500000e+00 1.0000000e+00 0.0000000e+00 
2.5000000e+00 0.0000000e+00 0.0000000e+00 
2.3750000e+00 7.8349364e-01 0.0000000e+00 
2.5000000e+00 5.6698728e-01 0.0000000e+00 
2.6250000e+00 2.8349364e-01 0.0000000e+00 
2.5000000e+00 1.0000000e+00 0.0000000e+00 
2.6250000e+00 7.8349364e-01 0.0000000e+00 
2.7500000e+00 0.0000000e+00 0.0000000e+00 
2.7500000e+00 5.6698728e-01 0.0000000e+00 
2.8750000e+00 2.8349364e-01 0.0000000e+00 
2.7500000e+00 1.0000000e+00 0.0000000e+00 
2.8750000e+00 7.8349364e-01 0.0000000e+00 
3.0000000e+00 0.0000000e+00 0.0000000e+00 
3.0000000e+00 5.0000000e-01 0.0000000e+00 
3.1250000e+00 2.1650635e-01 0.0000000e+00 
3.0000000e+00 1.0000000e+00 0.0000000e+00 
3.1250000e+00 7.1650636e-01 0.0000000e+00 
3.2500000e+00 0.0000000e+00 0.0000000e+00 
3.2500000e+00 4.3301269e-01 0.0000000e+00 
3.3750000e+00 2.1650635e-01 0.0000000e+00 
3.2500000e+00 1.0000000e+00 0.0000000e+00 
3.3750000e+00 7.1650636e-01 0.0000000e+00 
3.5000000e+00 0.0000000e+00 0.0000000e+00 
3.5000000e+00 4.3301269e-01 0.0000000e+00 
3.6250000e+00 2.1650635e-01 0.0000000e+00 
3.5000000e+00 1.0000000e+00 0.0000000e+00 
3.6250000e+00 7.1650636e-01 0.0000000e+00 
3.7500000e+00 0.0000000e+00 0.0000000e+00 
3.7500000e+00 4.3301269e-01 0.0000000e+00 
3.8750000e+00 2.1650635e-01 0.0000000e+00 
3.7500000e+00 1.0000000e+00 0.0000000e+00 
3.8750000e+00 7.1650636e-01 0.0000000e+00 
4.0000000e+00 0.0000000e+00 0.0000000e+00 
4.0208335e+00 4.6092409e-01 0.0000000e+00 
4.0000000e+00 1.0000000e+00 0.0000000e+00 
4.1458335e+00 2.4441773e-01 0.0000000e+00 
4.1458335e+00 7.4441773e-01 0.0000000e+00 
4.2500000e+00 0.0000000e+00 0.0000000e+00 
4.2916665e+00 4.8883545e-01 0.0000000e+00 
4.2500000e+00 1.0000000e+00 0.0000000e+00 
4.3958335e+00 2.4441773e-01 0.0000000e+00 
4.3958335e+00 7.4441773e-01 0.0000000e+00 
4.5000000e+00 0.0000000e+00 0.0000000e+00 
4.5000000e+00 1.0000000e+00 0.0000000e+00 
4.6458335e+00 4.9441773e-01 0.0000000e+00 
4.7500000e+00 0.0000000e+00 0.0000000e+00 
4.7500000e+00 2.5000000e-01 0.0000000e+00 
4.7500000e+00 7.5000000e-01 0.0000000e+00 
4.7500000e+00 1.0000000e+00 0.0000000e+00 
5.0000000e+00 0.0000000e+00 0.0000000e+00 
5.0000000e+00 2.5000000e-01 0.0000000e+00 
5.0000000e+00 5.0000000e-01 0.0000000e+00 
5.0000000e+00 7.5000000e-01 0.0000000e+00 
5.0000000e+00 1.0000000e+00 0.0000000e+00 

CELLS 38 266
6 0 5 4 2 3 1
6 79 89 85 84 87 82
6 62 52 55 57 53 58
6 85 89 98 87 93 91
6 79 85 75 82 80 76
6 55 52 45 53 49 50
6 75 85 81 80 83 78
6 79 75 69 76 71 74
6 45 52 42 49 47 44
6 55 45 48 50 46 51
6 69 75 65 71 70 66
6 65 75 72 70 73 68
6 69 65 59 66 61 64
6 59 65 55 61 60 56
6 37 48 45 43 46 41
6 100 90 98 95 94 99
6 26 18 11 21 13 19
6 11 18 4 13 10 6
6 26 11 24 19 17 23
6 24 11 15 17 12 20
6 26 24 33 23 28 29
6 33 24 35 28 30 34
6 35 24 27 30 25 31
6 33 35 42 34 39 38
6 42 35 45 39 40 44
6 45 35 37 40 36 41
6 15 27 24 22 25 20
6 96 98 89 97 93 92
6 81 72 75 77 73 78
6 14 4 18 8 10 16
6 5 15 11 9 12 7
6 48 59 55 54 56 51
6 90 81 85 86 83 88
6 27 37 35 32 36 31
6 72 62 65 67 63 68
6 62 55 65 58 60 63
6 90 85 98 88 91 94
6 5 11 4 7 6 3

CELL_TYPES 38
22
22
22
22
22
22
22
22
22
22
22
22
22
22
22
22
22
22
22
22
22
22
22
22
22
22
22
22
22
22
22
22
22
22
22
22
22
22
POINT_DATA 101
FIELD FieldData 1
DISPLACEMENT 3 101  float
0.0000000e+00 0.0000000e+00 0.0000000e+00 
0.0000000e+00 0.0000000e+00 0.0000000e+00 
0.0000000e+00 0.0000000e+00 0.0000000e+00 
-8.6699741e-09 -1.9301842e-09 0.0000000e+00 
0.0000000e+00 0.0000000e+00 0.0000000e+00 
0.0000000e+00 0.0000000e+00 0.0000000e+00 
-1.6450004e-08 -2.0775888e-10 0.0000000e+00 
-4.5301739e-08 -2.8478246e-09 0.0000000e+00 
0.0000000e+00 0.0000000e+00 0.0000000e+00 
0.0000000e+00 0.0000000e+00 0.0000000e+00 
-1.1083198e-08 8.1469065e-10 0.0000000e+00 
-8.0276529e-08 1.5746730e-08 0.0000000e+00 
-1.3658453e-07 -9.7556496e-09 0.0000000e+00 
-5.0561734e-08 1.0009692e-08 0.0000000e+00 
0.0000000e+00 0.0000000e+00 0.0000000e+00 
0.0000000e+00 0.0000000e+00 0.0000000e+00 
-1.5149432e-08 4.0968602e-09 0.0000000e+00 
-2.1004021e-07 3.1145344e-08 0.0000000e+00 
-4.0599598e-08 1.0530164e-08 0.0000000e+00 
-1.2248019e-07 2.4506887e-08 0.0000000e+00 
-4.5484498e-07 -2.4364406e-08 0.0000000e+00 
-1.0624768e-07 2.8577812e-08 0.0000000e+00 
0.0000000e+00 0.0000000e+00 0.0000000e+00 
-3.2910475e-07 9.9989002e-08 0.0000000e+00 
-6.0995819e-07 1.3795542e-07 0.0000000e+00 
-1.3437327e-06 -1.6811848e-07 0.0000000e+00 
-2.5787028e-07 8.6050207e-08 0.0000000e+00 
0.0000000e+00 0.0000000e+00 0.0000000e+00 
-7.8106848e-07 2.8410668e-07 0.0000000e+00 
-5.8353783e-07 2.2236446e-07 0.0000000e+00 
-1.9051614e-06 1.8590320e-07 0.0000000e+00 
-3.8479498e-06 -9.2288712e-07 0.0000000e+00 
0.0000000e+00 0.0000000e+00 0.0000000e+00 
-1.2842308e-06 7.8474039e-07 0.0000000e+00 
-1.9144099e-06 8.8008716e-07 0.0000000e+00 
-5.6993272e-06 -2.1735652e-06 0.0000000e+00 
-1.0258640e-05 -5.3238186e-06 0.0000000e+00 
0.0000000e+00 0.0000000e+00 0.0000000e+00 
2.9052903e-06 1.5640529e-06 0.0000000e+00 
-7.2379753e-06 -7.0909880e-07 0.0000000e+00 
-2.3932878e-05 -8.3045279e-06 0.0000000e+00 
-2.5255267e-05 -2.2417400e-05 0.0000000e+00 
1.2911089e-05 -8.6593309e-06 0.0000000e+00 
0.0000000e+00 0.0000000e+00 0.0000000e+00 
-2.1425623e-05 -1.0904670e-05 0.0000000e+00 
-7.2351402e-05 -8.6696207e-05 0.0000000e+00 
-3.8936625e-05 -6.3975473e-05 0.0000000e+00 
1.5471393e-04 -4.9866230e-05 0.0000000e+00 
0.0000000e+00 0.0000000e+00 0.0000000e+00 
-1.1802564e-04 -2.0468631e-04 0.0000000e+00 
-1.1823134e-04 -2.9222423e-04 0.0000000e+00 
-2.5323161e-05 -1.0653532e-04 0.0000000e+00 
3.6117906e-04 -8.7017077e-04 0.0000000e+00 
-2.5969520e-04 -1.0459346e-03 0.0000000e+00 
0.0000000e+00 0.0000000e+00 0.0000000e+00 
1.9171698e-06 -5.1314535e-04 0.0000000e+00 
3.2938096e-05 -1.0617811e-04 0.0000000e+00 
-3.1465472e-05 -3.8481441e-03 0.0000000e+00 
3.0977084e-04 -9.1264310e-04 0.0000000e+00 
0.0000000e+00 0.0000000e+00 0.0000000e+00 
7.6577402e-05 -1.8077032e-04 0.0000000e+00 
1.6510041e-05 -4.9349139e-05 0.0000000e+00 
-3.2599265e-04 -2.6731606e-04 0.0000000e+00 
9.8484554e-05 -8.1610124e-05 0.0000000e+00 
0.0000000e+00 0.0000000e+00 0.0000000e+00 
3.3555574e-05 -1.0012560e-04 0.0000000e+00 
1.0993303e-05 -3.4997087e-05 0.0000000e+00 
-8.0942780e-05 -3.6836005e-05 0.0000000e+00 
-2.0993139e-05 -6.5725348e-05 0.0000000e+00 
0.0000000e+00 0.0000000e+00 0.0000000e+00 
-7.7678442e-06 -6.0885061e-05 0.0000000e+00 
1.2807858e-06 -2.8001681e-05 0.0000000e+00 
7.5963260e-05 -3.1264487e-04 0.0000000e+00 
-6.3760031e-05 -2.3760078e-04 0.0000000e+00 
0.0000000e+00 0.0000000e+00 0.0000000e+00 
2.3785831e-06 -9.2504728e-05 0.0000000e+00 
8.6921045e-06 -2.3261631e-05 0.0000000e+00 
-1.4982837e-05 -1.2236639e-03 0.0000000e+00 
9.3950192e-05 -2.0649421e-04 0.0000000e+00 
0.0000000e+00 0.0000000e+00 0.0000000e+00 
2.8318709e-05 -4.7963098e-05 0.0000000e+00 
-9.3829505e-05 -1.3223571e-04 0.0000000e+00 
1.0296196e-05 -1.4396414e-05 0.0000000e+00 
2.7937023e-05 -2.1152231e-05 0.0000000e+00 
0.0000000e+00 0.0000000e+00 0.0000000e+00 
1.5064947e-05 -1.5989970e-05 0.0000000e+00 
-3.6695907e-05 -6.6101265e-06 0.0000000e+00 
6.1994765e-06 -5.3538533e-06 0.0000000e+00 
6.6922366e-06 -5.8000762e-07 0.0000000e+00 
0.0000000e+00 0.0000000e+00 0.0000000e+00 
-2.6880618e-06 2.4533372e-06 0.0000000e+00 
2.6471478e-06 7.7182314e-09 0.0000000e+00 
0.0000000e+00 0.0000000e+00 0.0000000e+00 
1.5198851e-06 -1.6103436e-07 0.0000000e+00 
9.6235806e-07 7.9184758e-07 0.0000000e+00 
-3.8583241e-07 7.7751980e-07 0.0000000e+00 
0.0000000e+00 0.0000000e+00 0.0000000e+00 
0.0000000e+00 0.0000000e+00 0.0000000e+00 
0.0000000e+00 0.0000000e+00 0.0000000e+00 
0.0000000e+00 0.0000000e+00 0.0000000e+00 
0.0000000e+00 0.0000000e+00 0.0000000e+00 
CELL_DATA 38
FIELD FieldData 0
