# vtk DataFile Version 4.0
vtk output
ASCII
DATASET UNSTRUCTURED_GRID
POINTS 101 float
0.0000000e+00 0.0000000e+00 0.0000000e+00 
0.0000000e+00 2.5000000e-01 0.0000000e+00 
2.5000000e-01 0.0000000e+00 0.0000000e+00 
2.5000000e-01 2.5000000e-01 0.0000000e+00 
0.0000000e+00 5.0000000e-01 0.0000000e+00 
5.0000000e-01 0.0000000e+00 0.0000000e+00 
3.5416666e-01 5.0558227e-01 0.0000000e+00 
6.0416669e-01 2.5558227e-01 0.0000000e+00 
0.0000000e+00 7.5000000e-01 0.0000000e+00 
7.5000000e-01 0.0000000e+00 0.0000000e+00 
2.5000000e-01 7.5000000e-01 0.0000000e+00 
7.0833331e-01 5.1116455e-01 0.0000000e+00 
8.5416669e-01 2.5558227e-01 0.0000000e+00 
6.0416669e-01 7.5558227e-01 0.0000000e+00 
0.0000000e+00 1.0000000e+00 0.0000000e+00 
1.0000000e+00 0.0000000e+00 0.0000000e+00 
2.5000000e-01 1.0000000e+00 0.0000000e+00 
9.7916669e-01 5.3907591e-01 0.0000000e+00 
5.0000000e-01 1.0000000e+00 0.0000000e+00 
8.5416669e-01 7.5558227e-01 0.0000000e+00 
1.1250000e+00 2.8349364e-01 0.0000000e+00 
7.5000000e-01 1.0000000e+00 0.0000000e+00 
1.2500000e+00 0.0000000e+00 0.0000000e+00 
1.1250000e+00 7.8349364e-01 0.0000000e+00 
1.2500000e+00 5.6698728e-01 0.0000000e+00 
1.3750000e+00 2.8349364e-01 0.0000000e+00 
1.0000000e+00 1.0000000e+00 0.0000000e+00 
1.5000000e+00 0.0000000e+00 0.0000000e+00 
1.3750000e+00 7.8349364e-01 0.0000000e+00 
1.2500000e+00 1.0000000e+00 0.0000000e+00 
1.5000000e+00 5.6698728e-01 0.0000000e+00 
1.6250000e+00 2.8349364e-01 0.0000000e+00 
1.7500000e+00 0.0000000e+00 0.0000000e+00 
1.5000000e+00 1.0000000e+00 0.0000000e+00 
1.6250000e+00 7.8349364e-01 0.0000000e+00 
1.7500000e+00 5.6698728e-01 0.0000000e+00 
1.8750000e+00 2.8349364e-01 0.0000000e+00 
2.0000000e+00 0.0000000e+00 0.0000000e+00 
1.7500000e+00 1.0000000e+00 0.0000000e+00 
1.8750000e+00 7.8349364e-01 0.0000000e+00 
2.0000000e+00 5.6698728e-01 0.0000000e+00 
2.1250000e+00 2.8349364e-01 0.0000000e+00 
2.0000000e+00 1.0000000e+00 0.0000000e+00 
2.2500000e+00 0.0000000e+00 0.0000000e+00 
2.1250000e+00 7.8349364e-01 0.0000000e+00 
2.2500000e+00 5.6698728e-01 0.0000000e+00 
2.3750000e+00 2.8349364e-01 0.0000000e+00 
2.2500000e+00 1.0000000e+00 0.0000000e+00 
2.5000000e+00 0.0000000e+00 0.0000000e+00 
2.3750000e+00 7.8349364e-01 0.0000000e+00 
2.5000000e+00 5.6698728e-01 0.0000000e+00 
2.6250000e+00 2.8349364e-01 0.0000000e+00 
2.5000000e+00 1.0000000e+00 0.0000000e+00 
2.6250000e+00 7.8349364e-01 0.0000000e+00 
2.7500000e+00 0.0000000e+00 0.0000000e+00 
2.7500000e+00 5.6698728e-01 0.0000000e+00 
2.8750000e+00 2.8349364e-01 0.0000000e+00 
2.7500000e+00 1.0000000e+00 0.0000000e+00 
2.8750000e+00 7.8349364e-01 0.0000000e+00 
3.0000000e+00 0.0000000e+00 0.0000000e+00 
3.0000000e+00 5.0000000e-01 0.0000000e+00 
3.1250000e+00 2.1650635e-01 0.0000000e+00 
3.0000000e+00 1.0000000e+00 0.0000000e+00 
3.1250000e+00 7.1650636e-01 0.0000000e+00 
3.2500000e+00 0.0000000e+00 0.0000000e+00 
3.2500000e+00 4.3301269e-01 0.0000000e+00 
3.3750000e+00 2.1650635e-01 0.0000000e+00 
3.2500000e+00 1.0000000e+00 0.0000000e+00 
3.3750000e+00 7.1650636e-01 0.0000000e+00 
3.5000000e+00 0.0000000e+00 0.0000000e+00 
3.5000000e+00 4.3301269e-01 0.0000000e+00 
3.6250000e+00 2.1650635e-01 0.0000000e+00 
3.5000000e+00 1.0000000e+00 0.0000000e+00 
3.6250000e+00 7.1650636e-01 0.0000000e+00 
3.7500000e+00 0.0000000e+00 0.0000000e+00 
3.7500000e+00 4.3301269e-01 0.0000000e+00 
3.8750000e+00 2.1650635e-01 0.0000000e+00 
3.7500000e+00 1.0000000e+00 0.0000000e+00 
3.8750000e+00 7.1650636e-01 0.0000000e+00 
4.0000000e+00 0.0000000e+00 0.0000000e+00 
4.0208335e+00 4.6092409e-01 0.0000000e+00 
4.0000000e+00 1.0000000e+00 0.0000000e+00 
4.1458335e+00 2.4441773e-01 0.0000000e+00 
4.1458335e+00 7.4441773e-01 0.0000000e+00 
4.2500000e+00 0.0000000e+00 0.0000000e+00 
4.2916665e+00 4.8883545e-01 0.0000000e+00 
4.2500000e+00 1.0000000e+00 0.0000000e+00 
4.3958335e+00 2.4441773e-01 0.0000000e+00 
4.3958335e+00 7.4441773e-01 0.0000000e+00 
4.5000000e+00 0.0000000e+00 0.0000000e+00 
4.5000000e+00 1.0000000e+00 0.0000000e+00 
4.6458335e+00 4.9441773e-01 0.0000000e+00 
4.7500000e+00 0.0000000e+00 0.0000000e+00 
4.7500000e+00 2.5000000e-01 0.0000000e+00 
4.7500000e+00 7.5000000e-01 0.0000000e+00 
4.7500000e+00 1.0000000e+00 0.0000000e+00 
5.0000000e+00 0.0000000e+00 0.0000000e+00 
5.0000000e+00 2.5000000e-01 0.0000000e+00 
5.0000000e+00 5.0000000e-01 0.0000000e+00 
5.0000000e+00 7.5000000e-01 0.0000000e+00 
5.0000000e+00 1.0000000e+00 0.0000000e+00 

CELLS 38 266
6 0 5 4 2 3 1
6 79 89 85 84 87 82
6 62 52 55 57 53 58
6 85 89 98 87 93 91
6 79 85 75 82 80 76
6 55 52 45 53 49 50
6 75 85 81 80 83 78
6 79 75 69 76 71 74
6 45 52 42 49 47 44
6 55 45 48 50 46 51
6 69 75 65 71 70 66
6 65 75 72 70 73 68
6 69 65 59 66 61 64
6 59 65 55 61 60 56
6 37 48 45 43 46 41
6 100 90 98 95 94 99
6 26 18 11 21 13 19
6 11 18 4 13 10 6
6 26 11 24 19 17 23
6 24 11 15 17 12 20
6 26 24 33 23 28 29
6 33 24 35 28 30 34
6 35 24 27 30 25 31
6 33 35 42 34 39 38
6 42 35 45 39 40 44
6 45 35 37 40 36 41
6 15 27 24 22 25 20
6 96 98 89 97 93 92
6 81 72 75 77 73 78
6 14 4 18 8 10 16
6 5 15 11 9 12 7
6 48 59 55 54 56 51
6 90 81 85 86 83 88
6 27 37 35 32 36 31
6 72 62 65 67 63 68
6 62 55 65 58 60 63
6 90 85 98 88 91 94
6 5 11 4 7 6 3

CELL_TYPES 38
22
22
22
22
22
22
22
22
22
22
22
22
22
22
22
22
22
22
22
22
22
22
22
22
22
22
22
22
22
22
22
22
22
22
22
22
22
22
POINT_DATA 101
FIELD FieldData 1
DISPLACEMENT 3 101  float
0.0000000e+00 0.0000000e+00 0.0000000e+00 
0.0000000e+00 0.0000000e+00 0.0000000e+00 
0.0000000e+00 0.0000000e+00 0.0000000e+00 
-1.6673253e-06 1.7934167e-06 0.0000000e+00 
0.0000000e+00 0.0000000e+00 0.0000000e+00 
0.0000000e+00 0.0000000e+00 0.0000000e+00 
-3.1956497e-06 6.4702663e-06 0.0000000e+00 
-8.3363102e-06 6.7115443e-06 0.0000000e+00 
0.0000000e+00 0.0000000e+00 0.0000000e+00 
0.0000000e+00 0.0000000e+00 0.0000000e+00 
-2.8222892e-06 4.9186851e-06 0.0000000e+00 
-1.0379370e-05 1.9322706e-05 0.0000000e+00 
-2.0546348e-05 1.0029480e-05 0.0000000e+00 
-5.2486807e-06 1.8931727e-05 0.0000000e+00 
0.0000000e+00 0.0000000e+00 0.0000000e+00 
0.0000000e+00 0.0000000e+00 0.0000000e+00 
-6.5151812e-06 5.7414386e-06 0.0000000e+00 
-2.1547814e-05 3.1173742e-05 0.0000000e+00 
-1.0709105e-05 1.4822341e-05 0.0000000e+00 
-4.0068285e-06 3.2527936e-05 0.0000000e+00 
-4.8917609e-05 1.3082866e-05 0.0000000e+00 
-7.1566997e-06 2.6827458e-05 0.0000000e+00 
0.0000000e+00 0.0000000e+00 0.0000000e+00 
4.7318099e-06 4.7183392e-05 0.0000000e+00 
-3.9658458e-05 3.8954346e-05 0.0000000e+00 
-9.6966462e-05 -3.4277227e-07 0.0000000e+00 
5.6177423e-06 3.9270290e-05 0.0000000e+00 
0.0000000e+00 0.0000000e+00 0.0000000e+00 
2.0709538e-05 4.0079762e-05 0.0000000e+00 
5.0044095e-05 4.2068452e-05 0.0000000e+00 
-8.3739462e-05 6.7408778e-06 0.0000000e+00 
-1.7687902e-04 -4.7444926e-05 0.0000000e+00 
0.0000000e+00 0.0000000e+00 0.0000000e+00 
1.2820716e-04 1.0342518e-05 0.0000000e+00 
4.4088047e-05 -1.8203853e-05 0.0000000e+00 
-1.6000317e-04 -1.0456041e-04 0.0000000e+00 
-2.9639341e-04 -1.7421128e-04 0.0000000e+00 
0.0000000e+00 0.0000000e+00 0.0000000e+00 
3.1373036e-04 -1.1639180e-04 0.0000000e+00 
6.7301175e-05 -2.1981343e-04 0.0000000e+00 
-3.1322424e-04 -4.1514329e-04 0.0000000e+00 
-4.3516615e-04 -4.4826098e-04 0.0000000e+00 
5.8911665e-04 -4.5474997e-04 0.0000000e+00 
0.0000000e+00 0.0000000e+00 0.0000000e+00 
5.5757901e-05 -7.5210980e-04 0.0000000e+00 
-5.3707586e-04 -1.1416676e-03 0.0000000e+00 
-4.9759063e-04 -8.9111726e-04 0.0000000e+00 
1.0423159e-03 -1.3220509e-03 0.0000000e+00 
0.0000000e+00 0.0000000e+00 0.0000000e+00 
-5.7771627e-05 -1.9697717e-03 0.0000000e+00 
-5.8058789e-04 -2.3890380e-03 0.0000000e+00 
-3.2621989e-04 -1.3411265e-03 0.0000000e+00 
1.4569380e-03 -3.1916113e-03 0.0000000e+00 
-3.7579419e-04 -4.5264880e-03 0.0000000e+00 
0.0000000e+00 0.0000000e+00 0.0000000e+00 
-1.3202126e-04 -3.4513122e-03 0.0000000e+00 
6.7540277e-05 -1.4513999e-03 0.0000000e+00 
3.2461638e-04 -8.3415210e-03 0.0000000e+00 
2.5723749e-04 -5.1064552e-03 0.0000000e+00 
0.0000000e+00 0.0000000e+00 0.0000000e+00 
3.4310378e-04 -2.5052915e-03 0.0000000e+00 
2.2957513e-04 -9.0359256e-04 0.0000000e+00 
-9.8564185e-04 -4.8770658e-03 0.0000000e+00 
3.2387939e-04 -2.8088817e-03 0.0000000e+00 
0.0000000e+00 0.0000000e+00 0.0000000e+00 
3.8049999e-04 -1.5188110e-03 0.0000000e+00 
2.5185745e-04 -6.7738636e-04 0.0000000e+00 
-7.7337580e-04 -2.3808253e-03 0.0000000e+00 
8.2293525e-05 -1.7252953e-03 0.0000000e+00 
0.0000000e+00 0.0000000e+00 0.0000000e+00 
2.4833207e-04 -1.1145094e-03 0.0000000e+00 
2.1535032e-04 -5.2249030e-04 0.0000000e+00 
-3.4779555e-04 -1.7957654e-03 0.0000000e+00 
-8.3678737e-05 -1.6863549e-03 0.0000000e+00 
0.0000000e+00 0.0000000e+00 0.0000000e+00 
2.5428858e-04 -9.7628537e-04 0.0000000e+00 
2.2422770e-04 -4.0921065e-04 0.0000000e+00 
-3.8159997e-04 -2.8913755e-03 0.0000000e+00 
1.0041002e-04 -1.5149541e-03 0.0000000e+00 
0.0000000e+00 0.0000000e+00 0.0000000e+00 
2.9333204e-04 -7.0439564e-04 0.0000000e+00 
-5.4758019e-04 -1.6150681e-03 0.0000000e+00 
2.3044291e-04 -2.8904079e-04 0.0000000e+00 
7.1743169e-05 -7.7773881e-04 0.0000000e+00 
0.0000000e+00 0.0000000e+00 0.0000000e+00 
2.2612949e-04 -3.4078027e-04 0.0000000e+00 
-4.4043188e-04 -5.8679562e-04 0.0000000e+00 
1.6944110e-04 -1.4378001e-04 0.0000000e+00 
2.2410442e-05 -2.7524866e-04 0.0000000e+00 
0.0000000e+00 0.0000000e+00 0.0000000e+00 
-2.5238181e-04 -1.7873477e-04 0.0000000e+00 
1.0249866e-04 -6.9497728e-05 0.0000000e+00 
0.0000000e+00 0.0000000e+00 0.0000000e+00 
6.6446126e-05 -3.2397587e-05 0.0000000e+00 
-7.3860429e-06 -2.0196589e-05 0.0000000e+00 
-1.1414790e-04 -3.7660626e-05 0.0000000e+00 
0.0000000e+00 0.0000000e+00 0.0000000e+00 
0.0000000e+00 0.0000000e+00 0.0000000e+00 
0.0000000e+00 0.0000000e+00 0.0000000e+00 
0.0000000e+00 0.0000000e+00 0.0000000e+00 
0.0000000e+00 0.0000000e+00 0.0000000e+00 
CELL_DATA 38
FIELD FieldData 0
