# vtk DataFile Version 4.0
vtk output
ASCII
DATASET UNSTRUCTURED_GRID
POINTS 101 float
0.0000000e+00 0.0000000e+00 0.0000000e+00 
0.0000000e+00 2.5000000e-01 0.0000000e+00 
2.5000000e-01 0.0000000e+00 0.0000000e+00 
2.5000000e-01 2.5000000e-01 0.0000000e+00 
0.0000000e+00 5.0000000e-01 0.0000000e+00 
5.0000000e-01 0.0000000e+00 0.0000000e+00 
3.5416666e-01 5.0558227e-01 0.0000000e+00 
6.0416669e-01 2.5558227e-01 0.0000000e+00 
0.0000000e+00 7.5000000e-01 0.0000000e+00 
7.5000000e-01 0.0000000e+00 0.0000000e+00 
2.5000000e-01 7.5000000e-01 0.0000000e+00 
7.0833331e-01 5.1116455e-01 0.0000000e+00 
8.5416669e-01 2.5558227e-01 0.0000000e+00 
6.0416669e-01 7.5558227e-01 0.0000000e+00 
0.0000000e+00 1.0000000e+00 0.0000000e+00 
1.0000000e+00 0.0000000e+00 0.0000000e+00 
2.5000000e-01 1.0000000e+00 0.0000000e+00 
9.7916669e-01 5.3907591e-01 0.0000000e+00 
5.0000000e-01 1.0000000e+00 0.0000000e+00 
8.5416669e-01 7.5558227e-01 0.0000000e+00 
1.1250000e+00 2.8349364e-01 0.0000000e+00 
7.5000000e-01 1.0000000e+00 0.0000000e+00 
1.2500000e+00 0.0000000e+00 0.0000000e+00 
1.1250000e+00 7.8349364e-01 0.0000000e+00 
1.2500000e+00 5.6698728e-01 0.0000000e+00 
1.3750000e+00 2.8349364e-01 0.0000000e+00 
1.0000000e+00 1.0000000e+00 0.0000000e+00 
1.5000000e+00 0.0000000e+00 0.0000000e+00 
1.3750000e+00 7.8349364e-01 0.0000000e+00 
1.2500000e+00 1.0000000e+00 0.0000000e+00 
1.5000000e+00 5.6698728e-01 0.0000000e+00 
1.6250000e+00 2.8349364e-01 0.0000000e+00 
1.7500000e+00 0.0000000e+00 0.0000000e+00 
1.5000000e+00 1.0000000e+00 0.0000000e+00 
1.6250000e+00 7.8349364e-01 0.0000000e+00 
1.7500000e+00 5.6698728e-01 0.0000000e+00 
1.8750000e+00 2.8349364e-01 0.0000000e+00 
2.0000000e+00 0.0000000e+00 0.0000000e+00 
1.7500000e+00 1.0000000e+00 0.0000000e+00 
1.8750000e+00 7.8349364e-01 0.0000000e+00 
2.0000000e+00 5.6698728e-01 0.0000000e+00 
2.1250000e+00 2.8349364e-01 0.0000000e+00 
2.0000000e+00 1.0000000e+00 0.0000000e+00 
2.2500000e+00 0.0000000e+00 0.0000000e+00 
2.1250000e+00 7.8349364e-01 0.0000000e+00 
2.2500000e+00 5.6698728e-01 0.0000000e+00 
2.3750000e+00 2.8349364e-01 0.0000000e+00 
2.2500000e+00 1.0000000e+00 0.0000000e+00 
2.5000000e+00 0.0000000e+00 0.0000000e+00 
2.3750000e+00 7.8349364e-01 0.0000000e+00 
2.5000000e+00 5.6698728e-01 0.0000000e+00 
2.6250000e+00 2.8349364e-01 0.0000000e+00 
2.5000000e+00 1.0000000e+00 0.0000000e+00 
2.6250000e+00 7.8349364e-01 0.0000000e+00 
2.7500000e+00 0.0000000e+00 0.0000000e+00 
2.7500000e+00 5.6698728e-01 0.0000000e+00 
2.8750000e+00 2.8349364e-01 0.0000000e+00 
2.7500000e+00 1.0000000e+00 0.0000000e+00 
2.8750000e+00 7.8349364e-01 0.0000000e+00 
3.0000000e+00 0.0000000e+00 0.0000000e+00 
3.0000000e+00 5.0000000e-01 0.0000000e+00 
3.1250000e+00 2.1650635e-01 0.0000000e+00 
3.0000000e+00 1.0000000e+00 0.0000000e+00 
3.1250000e+00 7.1650636e-01 0.0000000e+00 
3.2500000e+00 0.0000000e+00 0.0000000e+00 
3.2500000e+00 4.3301269e-01 0.0000000e+00 
3.3750000e+00 2.1650635e-01 0.0000000e+00 
3.2500000e+00 1.0000000e+00 0.0000000e+00 
3.3750000e+00 7.1650636e-01 0.0000000e+00 
3.5000000e+00 0.0000000e+00 0.0000000e+00 
3.5000000e+00 4.3301269e-01 0.0000000e+00 
3.6250000e+00 2.1650635e-01 0.0000000e+00 
3.5000000e+00 1.0000000e+00 0.0000000e+00 
3.6250000e+00 7.1650636e-01 0.0000000e+00 
3.7500000e+00 0.0000000e+00 0.0000000e+00 
3.7500000e+00 4.3301269e-01 0.0000000e+00 
3.8750000e+00 2.1650635e-01 0.0000000e+00 
3.7500000e+00 1.0000000e+00 0.0000000e+00 
3.8750000e+00 7.1650636e-01 0.0000000e+00 
4.0000000e+00 0.0000000e+00 0.0000000e+00 
4.0208335e+00 4.6092409e-01 0.0000000e+00 
4.0000000e+00 1.0000000e+00 0.0000000e+00 
4.1458335e+00 2.4441773e-01 0.0000000e+00 
4.1458335e+00 7.4441773e-01 0.0000000e+00 
4.2500000e+00 0.0000000e+00 0.0000000e+00 
4.2916665e+00 4.8883545e-01 0.0000000e+00 
4.2500000e+00 1.0000000e+00 0.0000000e+00 
4.3958335e+00 2.4441773e-01 0.0000000e+00 
4.3958335e+00 7.4441773e-01 0.0000000e+00 
4.5000000e+00 0.0000000e+00 0.0000000e+00 
4.5000000e+00 1.0000000e+00 0.0000000e+00 
4.6458335e+00 4.9441773e-01 0.0000000e+00 
4.7500000e+00 0.0000000e+00 0.0000000e+00 
4.7500000e+00 2.5000000e-01 0.0000000e+00 
4.7500000e+00 7.5000000e-01 0.0000000e+00 
4.7500000e+00 1.0000000e+00 0.0000000e+00 
5.0000000e+00 0.0000000e+00 0.0000000e+00 
5.0000000e+00 2.5000000e-01 0.0000000e+00 
5.0000000e+00 5.0000000e-01 0.0000000e+00 
5.0000000e+00 7.5000000e-01 0.0000000e+00 
5.0000000e+00 1.0000000e+00 0.0000000e+00 

CELLS 38 266
6 0 5 4 2 3 1
6 79 89 85 84 87 82
6 62 52 55 57 53 58
6 85 89 98 87 93 91
6 79 85 75 82 80 76
6 55 52 45 53 49 50
6 75 85 81 80 83 78
6 79 75 69 76 71 74
6 45 52 42 49 47 44
6 55 45 48 50 46 51
6 69 75 65 71 70 66
6 65 75 72 70 73 68
6 69 65 59 66 61 64
6 59 65 55 61 60 56
6 37 48 45 43 46 41
6 100 90 98 95 94 99
6 26 18 11 21 13 19
6 11 18 4 13 10 6
6 26 11 24 19 17 23
6 24 11 15 17 12 20
6 26 24 33 23 28 29
6 33 24 35 28 30 34
6 35 24 27 30 25 31
6 33 35 42 34 39 38
6 42 35 45 39 40 44
6 45 35 37 40 36 41
6 15 27 24 22 25 20
6 96 98 89 97 93 92
6 81 72 75 77 73 78
6 14 4 18 8 10 16
6 5 15 11 9 12 7
6 48 59 55 54 56 51
6 90 81 85 86 83 88
6 27 37 35 32 36 31
6 72 62 65 67 63 68
6 62 55 65 58 60 63
6 90 85 98 88 91 94
6 5 11 4 7 6 3

CELL_TYPES 38
22
22
22
22
22
22
22
22
22
22
22
22
22
22
22
22
22
22
22
22
22
22
22
22
22
22
22
22
22
22
22
22
22
22
22
22
22
22
POINT_DATA 101
FIELD FieldData 1
DISPLACEMENT 3 101  float
0.0000000e+00 0.0000000e+00 0.0000000e+00 
0.0000000e+00 0.0000000e+00 0.0000000e+00 
0.0000000e+00 0.0000000e+00 0.0000000e+00 
-5.5300545e-11 -1.6471836e-11 0.0000000e+00 
0.0000000e+00 0.0000000e+00 0.0000000e+00 
0.0000000e+00 0.0000000e+00 0.0000000e+00 
-1.2031963e-10 -1.9480478e-11 0.0000000e+00 
-2.5663510e-10 -5.3557069e-11 0.0000000e+00 
0.0000000e+00 0.0000000e+00 0.0000000e+00 
0.0000000e+00 0.0000000e+00 0.0000000e+00 
-8.9310635e-11 2.3087405e-13 0.0000000e+00 
-5.7119959e-10 -1.9179261e-11 0.0000000e+00 
-7.0265710e-10 -1.4016814e-10 0.0000000e+00 
-4.3404538e-10 1.2871477e-11 0.0000000e+00 
0.0000000e+00 0.0000000e+00 0.0000000e+00 
0.0000000e+00 0.0000000e+00 0.0000000e+00 
-1.2217202e-10 2.7491264e-11 0.0000000e+00 
-1.5873614e-09 -1.0377664e-10 0.0000000e+00 
-3.3754394e-10 6.0154139e-11 0.0000000e+00 
-1.1236387e-09 2.9669801e-11 0.0000000e+00 
-2.1633628e-09 -3.6404407e-10 0.0000000e+00 
-9.3398034e-10 1.6484128e-10 0.0000000e+00 
0.0000000e+00 0.0000000e+00 0.0000000e+00 
-3.2801772e-09 2.3333027e-10 0.0000000e+00 
-4.6624735e-09 1.2606419e-10 0.0000000e+00 
-5.9719887e-09 -8.5549046e-10 0.0000000e+00 
-2.3907689e-09 4.9250443e-10 0.0000000e+00 
0.0000000e+00 0.0000000e+00 0.0000000e+00 
-8.3639211e-09 6.8276229e-10 0.0000000e+00 
-6.2493588e-09 1.2073677e-09 0.0000000e+00 
-1.2063783e-08 1.1359538e-10 0.0000000e+00 
-1.6263082e-08 -1.6769455e-09 0.0000000e+00 
0.0000000e+00 0.0000000e+00 0.0000000e+00 
-1.6019261e-08 3.4954526e-09 0.0000000e+00 
-2.1715568e-08 2.4555904e-09 0.0000000e+00 
-3.1592027e-08 4.8545741e-09 0.0000000e+00 
-4.6847315e-08 -2.2040232e-09 0.0000000e+00 
0.0000000e+00 0.0000000e+00 0.0000000e+00 
-4.3137380e-08 8.7730037e-09 0.0000000e+00 
-5.3281113e-08 7.2623756e-09 0.0000000e+00 
-7.5396997e-08 9.9386330e-09 0.0000000e+00 
-1.3341183e-07 1.1167780e-09 0.0000000e+00 
-1.1100260e-07 2.7182461e-08 0.0000000e+00 
0.0000000e+00 0.0000000e+00 0.0000000e+00 
-1.3370574e-07 2.5225283e-08 0.0000000e+00 
-1.9303678e-07 8.9179792e-08 0.0000000e+00 
-4.1065005e-07 6.3292838e-09 0.0000000e+00 
-3.6807316e-07 7.8945646e-08 0.0000000e+00 
0.0000000e+00 0.0000000e+00 0.0000000e+00 
-2.7997271e-07 1.4643911e-07 0.0000000e+00 
-4.9546190e-07 2.1447957e-07 0.0000000e+00 
-1.2314048e-06 -5.0682338e-08 0.0000000e+00 
-9.4609646e-07 5.9750784e-07 0.0000000e+00 
-6.6423343e-07 6.6293381e-07 0.0000000e+00 
0.0000000e+00 0.0000000e+00 0.0000000e+00 
-1.4696573e-06 3.7695071e-07 0.0000000e+00 
-3.6709002e-06 -7.1697445e-07 0.0000000e+00 
-1.1515840e-06 1.7948796e-06 0.0000000e+00 
-1.9920715e-06 3.3098768e-06 0.0000000e+00 
0.0000000e+00 0.0000000e+00 0.0000000e+00 
-6.6679690e-06 4.5444727e-07 0.0000000e+00 
-9.6931135e-06 -7.9288293e-06 0.0000000e+00 
7.8871949e-07 1.1036247e-05 0.0000000e+00 
-1.0114959e-05 1.0258883e-05 0.0000000e+00 
0.0000000e+00 0.0000000e+00 0.0000000e+00 
-2.5252892e-05 -2.8907185e-05 0.0000000e+00 
-1.2752282e-05 -1.7636607e-05 0.0000000e+00 
6.0652539e-05 2.2123237e-05 0.0000000e+00 
-4.9649701e-05 6.1951250e-06 0.0000000e+00 
0.0000000e+00 0.0000000e+00 0.0000000e+00 
-1.9892032e-05 -6.6426823e-05 0.0000000e+00 
-1.6177932e-05 -4.0184968e-05 0.0000000e+00 
1.9240050e-04 6.0011440e-05 0.0000000e+00 
-2.1446291e-04 -2.6756679e-04 0.0000000e+00 
0.0000000e+00 0.0000000e+00 0.0000000e+00 
5.2282870e-05 -1.9183317e-04 0.0000000e+00 
-4.4166341e-06 -8.8493136e-05 0.0000000e+00 
3.1642610e-04 -1.2457862e-03 0.0000000e+00 
-3.2802060e-04 -1.1110918e-03 0.0000000e+00 
0.0000000e+00 0.0000000e+00 0.0000000e+00 
1.0409337e-05 -3.0449856e-04 0.0000000e+00 
-2.7572572e-05 -5.1479894e-03 0.0000000e+00 
2.1854528e-05 -9.2588249e-05 0.0000000e+00 
4.3456082e-04 -1.0241102e-03 0.0000000e+00 
0.0000000e+00 0.0000000e+00 0.0000000e+00 
-2.3874509e-05 -1.6979322e-04 0.0000000e+00 
-3.8108943e-04 -5.3095835e-04 0.0000000e+00 
1.8997032e-05 -4.3674481e-05 0.0000000e+00 
1.3372175e-04 -1.4291730e-04 0.0000000e+00 
0.0000000e+00 0.0000000e+00 0.0000000e+00 
-1.0574838e-04 -5.3055581e-05 0.0000000e+00 
2.5128949e-07 -3.6687772e-05 0.0000000e+00 
0.0000000e+00 0.0000000e+00 0.0000000e+00 
6.9339731e-06 -9.0161830e-06 0.0000000e+00 
-3.0053968e-06 -4.6829497e-05 0.0000000e+00 
-7.8869807e-06 -2.0605209e-04 0.0000000e+00 
0.0000000e+00 0.0000000e+00 0.0000000e+00 
0.0000000e+00 0.0000000e+00 0.0000000e+00 
0.0000000e+00 0.0000000e+00 0.0000000e+00 
0.0000000e+00 0.0000000e+00 0.0000000e+00 
0.0000000e+00 0.0000000e+00 0.0000000e+00 
CELL_DATA 38
FIELD FieldData 0
