# vtk DataFile Version 4.0
vtk output
ASCII
DATASET UNSTRUCTURED_GRID
POINTS 101 float
0.0000000e+00 0.0000000e+00 0.0000000e+00 
0.0000000e+00 2.5000000e-01 0.0000000e+00 
2.5000000e-01 0.0000000e+00 0.0000000e+00 
2.5000000e-01 2.5000000e-01 0.0000000e+00 
0.0000000e+00 5.0000000e-01 0.0000000e+00 
5.0000000e-01 0.0000000e+00 0.0000000e+00 
3.5416666e-01 5.0558227e-01 0.0000000e+00 
6.0416669e-01 2.5558227e-01 0.0000000e+00 
0.0000000e+00 7.5000000e-01 0.0000000e+00 
7.5000000e-01 0.0000000e+00 0.0000000e+00 
2.5000000e-01 7.5000000e-01 0.0000000e+00 
7.0833331e-01 5.1116455e-01 0.0000000e+00 
8.5416669e-01 2.5558227e-01 0.0000000e+00 
6.0416669e-01 7.5558227e-01 0.0000000e+00 
0.0000000e+00 1.0000000e+00 0.0000000e+00 
1.0000000e+00 0.0000000e+00 0.0000000e+00 
2.5000000e-01 1.0000000e+00 0.0000000e+00 
9.7916669e-01 5.3907591e-01 0.0000000e+00 
5.0000000e-01 1.0000000e+00 0.0000000e+00 
8.5416669e-01 7.5558227e-01 0.0000000e+00 
1.1250000e+00 2.8349364e-01 0.0000000e+00 
7.5000000e-01 1.0000000e+00 0.0000000e+00 
1.2500000e+00 0.0000000e+00 0.0000000e+00 
1.1250000e+00 7.8349364e-01 0.0000000e+00 
1.2500000e+00 5.6698728e-01 0.0000000e+00 
1.3750000e+00 2.8349364e-01 0.0000000e+00 
1.0000000e+00 1.0000000e+00 0.0000000e+00 
1.5000000e+00 0.0000000e+00 0.0000000e+00 
1.3750000e+00 7.8349364e-01 0.0000000e+00 
1.2500000e+00 1.0000000e+00 0.0000000e+00 
1.5000000e+00 5.6698728e-01 0.0000000e+00 
1.6250000e+00 2.8349364e-01 0.0000000e+00 
1.7500000e+00 0.0000000e+00 0.0000000e+00 
1.5000000e+00 1.0000000e+00 0.0000000e+00 
1.6250000e+00 7.8349364e-01 0.0000000e+00 
1.7500000e+00 5.6698728e-01 0.0000000e+00 
1.8750000e+00 2.8349364e-01 0.0000000e+00 
2.0000000e+00 0.0000000e+00 0.0000000e+00 
1.7500000e+00 1.0000000e+00 0.0000000e+00 
1.8750000e+00 7.8349364e-01 0.0000000e+00 
2.0000000e+00 5.6698728e-01 0.0000000e+00 
2.1250000e+00 2.8349364e-01 0.0000000e+00 
2.0000000e+00 1.0000000e+00 0.0000000e+00 
2.2500000e+00 0.0000000e+00 0.0000000e+00 
2.1250000e+00 7.8349364e-01 0.0000000e+00 
2.2500000e+00 5.6698728e-01 0.0000000e+00 
2.3750000e+00 2.8349364e-01 0.0000000e+00 
2.2500000e+00 1.0000000e+00 0.0000000e+00 
2.5000000e+00 0.0000000e+00 0.0000000e+00 
2.3750000e+00 7.8349364e-01 0.0000000e+00 
2.5000000e+00 5.6698728e-01 0.0000000e+00 
2.6250000e+00 2.8349364e-01 0.0000000e+00 
2.5000000e+00 1.0000000e+00 0.0000000e+00 
2.6250000e+00 7.8349364e-01 0.0000000e+00 
2.7500000e+00 0.0000000e+00 0.0000000e+00 
2.7500000e+00 5.6698728e-01 0.0000000e+00 
2.8750000e+00 2.8349364e-01 0.0000000e+00 
2.7500000e+00 1.0000000e+00 0.0000000e+00 
2.8750000e+00 7.8349364e-01 0.0000000e+00 
3.0000000e+00 0.0000000e+00 0.0000000e+00 
3.0000000e+00 5.0000000e-01 0.0000000e+00 
3.1250000e+00 2.1650635e-01 0.0000000e+00 
3.0000000e+00 1.0000000e+00 0.0000000e+00 
3.1250000e+00 7.1650636e-01 0.0000000e+00 
3.2500000e+00 0.0000000e+00 0.0000000e+00 
3.2500000e+00 4.3301269e-01 0.0000000e+00 
3.3750000e+00 2.1650635e-01 0.0000000e+00 
3.2500000e+00 1.0000000e+00 0.0000000e+00 
3.3750000e+00 7.1650636e-01 0.0000000e+00 
3.5000000e+00 0.0000000e+00 0.0000000e+00 
3.5000000e+00 4.3301269e-01 0.0000000e+00 
3.6250000e+00 2.1650635e-01 0.0000000e+00 
3.5000000e+00 1.0000000e+00 0.0000000e+00 
3.6250000e+00 7.1650636e-01 0.0000000e+00 
3.7500000e+00 0.0000000e+00 0.0000000e+00 
3.7500000e+00 4.3301269e-01 0.0000000e+00 
3.8750000e+00 2.1650635e-01 0.0000000e+00 
3.7500000e+00 1.0000000e+00 0.0000000e+00 
3.8750000e+00 7.1650636e-01 0.0000000e+00 
4.0000000e+00 0.0000000e+00 0.0000000e+00 
4.0208335e+00 4.6092409e-01 0.0000000e+00 
4.0000000e+00 1.0000000e+00 0.0000000e+00 
4.1458335e+00 2.4441773e-01 0.0000000e+00 
4.1458335e+00 7.4441773e-01 0.0000000e+00 
4.2500000e+00 0.0000000e+00 0.0000000e+00 
4.2916665e+00 4.8883545e-01 0.0000000e+00 
4.2500000e+00 1.0000000e+00 0.0000000e+00 
4.3958335e+00 2.4441773e-01 0.0000000e+00 
4.3958335e+00 7.4441773e-01 0.0000000e+00 
4.5000000e+00 0.0000000e+00 0.0000000e+00 
4.5000000e+00 1.0000000e+00 0.0000000e+00 
4.6458335e+00 4.9441773e-01 0.0000000e+00 
4.7500000e+00 0.0000000e+00 0.0000000e+00 
4.7500000e+00 2.5000000e-01 0.0000000e+00 
4.7500000e+00 7.5000000e-01 0.0000000e+00 
4.7500000e+00 1.0000000e+00 0.0000000e+00 
5.0000000e+00 0.0000000e+00 0.0000000e+00 
5.0000000e+00 2.5000000e-01 0.0000000e+00 
5.0000000e+00 5.0000000e-01 0.0000000e+00 
5.0000000e+00 7.5000000e-01 0.0000000e+00 
5.0000000e+00 1.0000000e+00 0.0000000e+00 

CELLS 38 266
6 0 5 4 2 3 1
6 79 89 85 84 87 82
6 62 52 55 57 53 58
6 85 89 98 87 93 91
6 79 85 75 82 80 76
6 55 52 45 53 49 50
6 75 85 81 80 83 78
6 79 75 69 76 71 74
6 45 52 42 49 47 44
6 55 45 48 50 46 51
6 69 75 65 71 70 66
6 65 75 72 70 73 68
6 69 65 59 66 61 64
6 59 65 55 61 60 56
6 37 48 45 43 46 41
6 100 90 98 95 94 99
6 26 18 11 21 13 19
6 11 18 4 13 10 6
6 26 11 24 19 17 23
6 24 11 15 17 12 20
6 26 24 33 23 28 29
6 33 24 35 28 30 34
6 35 24 27 30 25 31
6 33 35 42 34 39 38
6 42 35 45 39 40 44
6 45 35 37 40 36 41
6 15 27 24 22 25 20
6 96 98 89 97 93 92
6 81 72 75 77 73 78
6 14 4 18 8 10 16
6 5 15 11 9 12 7
6 48 59 55 54 56 51
6 90 81 85 86 83 88
6 27 37 35 32 36 31
6 72 62 65 67 63 68
6 62 55 65 58 60 63
6 90 85 98 88 91 94
6 5 11 4 7 6 3

CELL_TYPES 38
22
22
22
22
22
22
22
22
22
22
22
22
22
22
22
22
22
22
22
22
22
22
22
22
22
22
22
22
22
22
22
22
22
22
22
22
22
22
POINT_DATA 101
FIELD FieldData 1
DISPLACEMENT 3 101  float
0.0000000e+00 0.0000000e+00 0.0000000e+00 
0.0000000e+00 0.0000000e+00 0.0000000e+00 
0.0000000e+00 0.0000000e+00 0.0000000e+00 
-1.2482514e-06 5.9193979e-07 0.0000000e+00 
0.0000000e+00 0.0000000e+00 0.0000000e+00 
0.0000000e+00 0.0000000e+00 0.0000000e+00 
-3.1614834e-06 2.9468197e-06 0.0000000e+00 
-5.1586662e-06 3.7102955e-06 0.0000000e+00 
0.0000000e+00 0.0000000e+00 0.0000000e+00 
0.0000000e+00 0.0000000e+00 0.0000000e+00 
-3.3142187e-06 2.2549407e-06 0.0000000e+00 
-8.3475416e-06 1.1176045e-05 0.0000000e+00 
-1.1937356e-05 6.7155024e-06 0.0000000e+00 
-7.5079183e-06 1.0444262e-05 0.0000000e+00 
0.0000000e+00 0.0000000e+00 0.0000000e+00 
0.0000000e+00 0.0000000e+00 0.0000000e+00 
-5.8357282e-06 3.1746611e-06 0.0000000e+00 
-1.5282025e-05 2.1267941e-05 0.0000000e+00 
-1.0998550e-05 8.3976711e-06 0.0000000e+00 
-8.9473006e-06 2.0046942e-05 0.0000000e+00 
-2.8299753e-05 1.2027713e-05 0.0000000e+00 
-1.3291814e-05 1.6433503e-05 0.0000000e+00 
0.0000000e+00 0.0000000e+00 0.0000000e+00 
-6.8486111e-06 3.5421526e-05 0.0000000e+00 
-2.6298923e-05 3.5344150e-05 0.0000000e+00 
-5.7634843e-05 1.0768359e-05 0.0000000e+00 
-1.1479299e-05 2.7419226e-05 0.0000000e+00 
0.0000000e+00 0.0000000e+00 0.0000000e+00 
1.2592186e-06 4.5296361e-05 0.0000000e+00 
7.2046610e-06 3.9506220e-05 0.0000000e+00 
-5.1874809e-05 3.2883006e-05 0.0000000e+00 
-1.1026740e-04 -5.5685841e-06 0.0000000e+00 
0.0000000e+00 0.0000000e+00 0.0000000e+00 
4.6543399e-05 3.9535858e-05 0.0000000e+00 
1.6775015e-05 3.6666261e-05 0.0000000e+00 
-9.7597775e-05 -2.3766017e-06 0.0000000e+00 
-1.9833961e-04 -6.5958338e-05 0.0000000e+00 
0.0000000e+00 0.0000000e+00 0.0000000e+00 
1.5410822e-04 -2.1525848e-06 0.0000000e+00 
3.9480346e-05 -4.0673985e-05 0.0000000e+00 
-1.9823402e-04 -1.4777730e-04 0.0000000e+00 
-3.2147297e-04 -2.1778757e-04 0.0000000e+00 
3.2641282e-04 -1.4772385e-04 0.0000000e+00 
0.0000000e+00 0.0000000e+00 0.0000000e+00 
5.4555640e-05 -2.8717556e-04 0.0000000e+00 
-3.6104824e-04 -5.4087403e-04 0.0000000e+00 
-4.4202918e-04 -5.1414571e-04 0.0000000e+00 
6.9818250e-04 -5.7765306e-04 0.0000000e+00 
0.0000000e+00 0.0000000e+00 0.0000000e+00 
1.4142208e-05 -9.2115812e-04 0.0000000e+00 
-5.0576543e-04 -1.3383992e-03 0.0000000e+00 
-4.6722748e-04 -9.7100239e-04 0.0000000e+00 
1.1925367e-03 -1.5180953e-03 0.0000000e+00 
-2.4374595e-04 -2.4470417e-03 0.0000000e+00 
0.0000000e+00 0.0000000e+00 0.0000000e+00 
-4.8689614e-04 -2.5783337e-03 0.0000000e+00 
-2.6167146e-04 -1.3852781e-03 0.0000000e+00 
1.2736303e-03 -4.2891963e-03 0.0000000e+00 
-5.6967704e-04 -5.5182530e-03 0.0000000e+00 
0.0000000e+00 0.0000000e+00 0.0000000e+00 
-1.3264903e-05 -2.9675029e-03 0.0000000e+00 
8.5018881e-05 -1.0642697e-03 0.0000000e+00 
-2.8417815e-05 -1.0860046e-02 0.0000000e+00 
5.6435738e-04 -4.7818595e-03 0.0000000e+00 
0.0000000e+00 0.0000000e+00 0.0000000e+00 
2.5811364e-04 -1.9506377e-03 0.0000000e+00 
2.3207956e-04 -8.2253164e-04 0.0000000e+00 
-9.0864784e-04 -4.1202870e-03 0.0000000e+00 
3.3015280e-04 -2.5077767e-03 0.0000000e+00 
0.0000000e+00 0.0000000e+00 0.0000000e+00 
3.3479623e-04 -1.3785813e-03 0.0000000e+00 
2.3904101e-04 -6.2144338e-04 0.0000000e+00 
-7.6143269e-04 -1.9710904e-03 0.0000000e+00 
4.2683014e-06 -1.6584040e-03 0.0000000e+00 
0.0000000e+00 0.0000000e+00 0.0000000e+00 
2.9633104e-04 -1.0809320e-03 0.0000000e+00 
2.1614859e-04 -5.0880766e-04 0.0000000e+00 
-3.6182985e-04 -2.0195695e-03 0.0000000e+00 
-1.3863271e-04 -1.8727063e-03 0.0000000e+00 
0.0000000e+00 0.0000000e+00 0.0000000e+00 
2.4432410e-04 -9.7659184e-04 0.0000000e+00 
-3.7628930e-04 -3.6736354e-03 0.0000000e+00 
2.3634019e-04 -4.1647675e-04 0.0000000e+00 
1.9526933e-04 -1.5739466e-03 0.0000000e+00 
0.0000000e+00 0.0000000e+00 0.0000000e+00 
2.4277467e-04 -6.0256029e-04 0.0000000e+00 
-5.8346911e-04 -1.2473993e-03 0.0000000e+00 
2.0061737e-04 -2.4538950e-04 0.0000000e+00 
8.6478969e-05 -6.0968217e-04 0.0000000e+00 
0.0000000e+00 0.0000000e+00 0.0000000e+00 
-4.1430289e-04 -4.1815796e-04 0.0000000e+00 
1.4787323e-04 -1.7545818e-04 0.0000000e+00 
0.0000000e+00 0.0000000e+00 0.0000000e+00 
9.2447284e-05 -7.2563264e-05 0.0000000e+00 
-2.7401381e-06 -8.3980653e-05 0.0000000e+00 
-2.0241276e-04 -1.1039498e-04 0.0000000e+00 
0.0000000e+00 0.0000000e+00 0.0000000e+00 
0.0000000e+00 0.0000000e+00 0.0000000e+00 
0.0000000e+00 0.0000000e+00 0.0000000e+00 
0.0000000e+00 0.0000000e+00 0.0000000e+00 
0.0000000e+00 0.0000000e+00 0.0000000e+00 
CELL_DATA 38
FIELD FieldData 0
