# vtk DataFile Version 4.0
vtk output
ASCII
DATASET UNSTRUCTURED_GRID
POINTS 101 float
0.0000000e+00 0.0000000e+00 0.0000000e+00 
0.0000000e+00 2.5000000e-01 0.0000000e+00 
2.5000000e-01 0.0000000e+00 0.0000000e+00 
2.5000000e-01 2.5000000e-01 0.0000000e+00 
0.0000000e+00 5.0000000e-01 0.0000000e+00 
5.0000000e-01 0.0000000e+00 0.0000000e+00 
3.5416666e-01 5.0558227e-01 0.0000000e+00 
6.0416669e-01 2.5558227e-01 0.0000000e+00 
0.0000000e+00 7.5000000e-01 0.0000000e+00 
7.5000000e-01 0.0000000e+00 0.0000000e+00 
2.5000000e-01 7.5000000e-01 0.0000000e+00 
7.0833331e-01 5.1116455e-01 0.0000000e+00 
8.5416669e-01 2.5558227e-01 0.0000000e+00 
6.0416669e-01 7.5558227e-01 0.0000000e+00 
0.0000000e+00 1.0000000e+00 0.0000000e+00 
1.0000000e+00 0.0000000e+00 0.0000000e+00 
2.5000000e-01 1.0000000e+00 0.0000000e+00 
9.7916669e-01 5.3907591e-01 0.0000000e+00 
5.0000000e-01 1.0000000e+00 0.0000000e+00 
8.5416669e-01 7.5558227e-01 0.0000000e+00 
1.1250000e+00 2.8349364e-01 0.0000000e+00 
7.5000000e-01 1.0000000e+00 0.0000000e+00 
1.2500000e+00 0.0000000e+00 0.0000000e+00 
1.1250000e+00 7.8349364e-01 0.0000000e+00 
1.2500000e+00 5.6698728e-01 0.0000000e+00 
1.3750000e+00 2.8349364e-01 0.0000000e+00 
1.0000000e+00 1.0000000e+00 0.0000000e+00 
1.5000000e+00 0.0000000e+00 0.0000000e+00 
1.3750000e+00 7.8349364e-01 0.0000000e+00 
1.2500000e+00 1.0000000e+00 0.0000000e+00 
1.5000000e+00 5.6698728e-01 0.0000000e+00 
1.6250000e+00 2.8349364e-01 0.0000000e+00 
1.7500000e+00 0.0000000e+00 0.0000000e+00 
1.5000000e+00 1.0000000e+00 0.0000000e+00 
1.6250000e+00 7.8349364e-01 0.0000000e+00 
1.7500000e+00 5.6698728e-01 0.0000000e+00 
1.8750000e+00 2.8349364e-01 0.0000000e+00 
2.0000000e+00 0.0000000e+00 0.0000000e+00 
1.7500000e+00 1.0000000e+00 0.0000000e+00 
1.8750000e+00 7.8349364e-01 0.0000000e+00 
2.0000000e+00 5.6698728e-01 0.0000000e+00 
2.1250000e+00 2.8349364e-01 0.0000000e+00 
2.0000000e+00 1.0000000e+00 0.0000000e+00 
2.2500000e+00 0.0000000e+00 0.0000000e+00 
2.1250000e+00 7.8349364e-01 0.0000000e+00 
2.2500000e+00 5.6698728e-01 0.0000000e+00 
2.3750000e+00 2.8349364e-01 0.0000000e+00 
2.2500000e+00 1.0000000e+00 0.0000000e+00 
2.5000000e+00 0.0000000e+00 0.0000000e+00 
2.3750000e+00 7.8349364e-01 0.0000000e+00 
2.5000000e+00 5.6698728e-01 0.0000000e+00 
2.6250000e+00 2.8349364e-01 0.0000000e+00 
2.5000000e+00 1.0000000e+00 0.0000000e+00 
2.6250000e+00 7.8349364e-01 0.0000000e+00 
2.7500000e+00 0.0000000e+00 0.0000000e+00 
2.7500000e+00 5.6698728e-01 0.0000000e+00 
2.8750000e+00 2.8349364e-01 0.0000000e+00 
2.7500000e+00 1.0000000e+00 0.0000000e+00 
2.8750000e+00 7.8349364e-01 0.0000000e+00 
3.0000000e+00 0.0000000e+00 0.0000000e+00 
3.0000000e+00 5.0000000e-01 0.0000000e+00 
3.1250000e+00 2.1650635e-01 0.0000000e+00 
3.0000000e+00 1.0000000e+00 0.0000000e+00 
3.1250000e+00 7.1650636e-01 0.0000000e+00 
3.2500000e+00 0.0000000e+00 0.0000000e+00 
3.2500000e+00 4.3301269e-01 0.0000000e+00 
3.3750000e+00 2.1650635e-01 0.0000000e+00 
3.2500000e+00 1.0000000e+00 0.0000000e+00 
3.3750000e+00 7.1650636e-01 0.0000000e+00 
3.5000000e+00 0.0000000e+00 0.0000000e+00 
3.5000000e+00 4.3301269e-01 0.0000000e+00 
3.6250000e+00 2.1650635e-01 0.0000000e+00 
3.5000000e+00 1.0000000e+00 0.0000000e+00 
3.6250000e+00 7.1650636e-01 0.0000000e+00 
3.7500000e+00 0.0000000e+00 0.0000000e+00 
3.7500000e+00 4.3301269e-01 0.0000000e+00 
3.8750000e+00 2.1650635e-01 0.0000000e+00 
3.7500000e+00 1.0000000e+00 0.0000000e+00 
3.8750000e+00 7.1650636e-01 0.0000000e+00 
4.0000000e+00 0.0000000e+00 0.0000000e+00 
4.0208335e+00 4.6092409e-01 0.0000000e+00 
4.0000000e+00 1.0000000e+00 0.0000000e+00 
4.1458335e+00 2.4441773e-01 0.0000000e+00 
4.1458335e+00 7.4441773e-01 0.0000000e+00 
4.2500000e+00 0.0000000e+00 0.0000000e+00 
4.2916665e+00 4.8883545e-01 0.0000000e+00 
4.2500000e+00 1.0000000e+00 0.0000000e+00 
4.3958335e+00 2.4441773e-01 0.0000000e+00 
4.3958335e+00 7.4441773e-01 0.0000000e+00 
4.5000000e+00 0.0000000e+00 0.0000000e+00 
4.5000000e+00 1.0000000e+00 0.0000000e+00 
4.6458335e+00 4.9441773e-01 0.0000000e+00 
4.7500000e+00 0.0000000e+00 0.0000000e+00 
4.7500000e+00 2.5000000e-01 0.0000000e+00 
4.7500000e+00 7.5000000e-01 0.0000000e+00 
4.7500000e+00 1.0000000e+00 0.0000000e+00 
5.0000000e+00 0.0000000e+00 0.0000000e+00 
5.0000000e+00 2.5000000e-01 0.0000000e+00 
5.0000000e+00 5.0000000e-01 0.0000000e+00 
5.0000000e+00 7.5000000e-01 0.0000000e+00 
5.0000000e+00 1.0000000e+00 0.0000000e+00 

CELLS 38 266
6 0 5 4 2 3 1
6 79 89 85 84 87 82
6 62 52 55 57 53 58
6 85 89 98 87 93 91
6 79 85 75 82 80 76
6 55 52 45 53 49 50
6 75 85 81 80 83 78
6 79 75 69 76 71 74
6 45 52 42 49 47 44
6 55 45 48 50 46 51
6 69 75 65 71 70 66
6 65 75 72 70 73 68
6 69 65 59 66 61 64
6 59 65 55 61 60 56
6 37 48 45 43 46 41
6 100 90 98 95 94 99
6 26 18 11 21 13 19
6 11 18 4 13 10 6
6 26 11 24 19 17 23
6 24 11 15 17 12 20
6 26 24 33 23 28 29
6 33 24 35 28 30 34
6 35 24 27 30 25 31
6 33 35 42 34 39 38
6 42 35 45 39 40 44
6 45 35 37 40 36 41
6 15 27 24 22 25 20
6 96 98 89 97 93 92
6 81 72 75 77 73 78
6 14 4 18 8 10 16
6 5 15 11 9 12 7
6 48 59 55 54 56 51
6 90 81 85 86 83 88
6 27 37 35 32 36 31
6 72 62 65 67 63 68
6 62 55 65 58 60 63
6 90 85 98 88 91 94
6 5 11 4 7 6 3

CELL_TYPES 38
22
22
22
22
22
22
22
22
22
22
22
22
22
22
22
22
22
22
22
22
22
22
22
22
22
22
22
22
22
22
22
22
22
22
22
22
22
22
POINT_DATA 101
FIELD FieldData 1
DISPLACEMENT 3 101  float
0.0000000e+00 0.0000000e+00 0.0000000e+00 
0.0000000e+00 0.0000000e+00 0.0000000e+00 
0.0000000e+00 0.0000000e+00 0.0000000e+00 
-2.9810177e-09 -7.4967987e-10 0.0000000e+00 
0.0000000e+00 0.0000000e+00 0.0000000e+00 
0.0000000e+00 0.0000000e+00 0.0000000e+00 
-6.0243792e-09 -4.0982753e-10 0.0000000e+00 
-1.4986107e-08 -1.3686716e-09 0.0000000e+00 
0.0000000e+00 0.0000000e+00 0.0000000e+00 
0.0000000e+00 0.0000000e+00 0.0000000e+00 
-4.2327182e-09 1.9971948e-10 0.0000000e+00 
-2.9146879e-08 4.3938093e-09 0.0000000e+00 
-4.4212538e-08 -3.5749770e-09 0.0000000e+00 
-1.9822540e-08 2.8947245e-09 0.0000000e+00 
0.0000000e+00 0.0000000e+00 0.0000000e+00 
0.0000000e+00 0.0000000e+00 0.0000000e+00 
-5.7727214e-09 1.4733155e-09 0.0000000e+00 
-7.5202806e-08 7.7018321e-09 0.0000000e+00 
-1.5614411e-08 3.6663366e-09 0.0000000e+00 
-4.9135664e-08 6.4494410e-09 0.0000000e+00 
-1.4533329e-07 -2.9069220e-09 0.0000000e+00 
-4.1303707e-08 9.7327852e-09 0.0000000e+00 
0.0000000e+00 0.0000000e+00 0.0000000e+00 
-1.3599721e-07 2.7801352e-08 0.0000000e+00 
-2.1495427e-07 7.4580569e-08 0.0000000e+00 
-4.3618303e-07 -9.9435571e-10 0.0000000e+00 
-1.0263425e-07 2.5214849e-08 0.0000000e+00 
0.0000000e+00 0.0000000e+00 0.0000000e+00 
-3.0110760e-07 8.9307569e-08 0.0000000e+00 
-2.9799293e-07 6.6723608e-08 0.0000000e+00 
-5.2719599e-07 1.4998552e-07 0.0000000e+00 
-1.2881775e-06 -2.1406541e-08 0.0000000e+00 
0.0000000e+00 0.0000000e+00 0.0000000e+00 
-7.6772437e-07 2.7527275e-07 0.0000000e+00 
-6.7800607e-07 2.9899675e-07 0.0000000e+00 
-1.4294399e-06 6.0558301e-07 0.0000000e+00 
-3.9462125e-06 -1.0266642e-06 0.0000000e+00 
0.0000000e+00 0.0000000e+00 0.0000000e+00 
-2.4548217e-06 9.2709763e-07 0.0000000e+00 
-1.2128031e-06 2.1687465e-06 0.0000000e+00 
-8.2941087e-06 1.2837204e-06 0.0000000e+00 
-1.1019699e-05 -6.2213376e-06 0.0000000e+00 
-5.2953715e-06 7.9286974e-06 0.0000000e+00 
0.0000000e+00 0.0000000e+00 0.0000000e+00 
-2.3343694e-06 8.9485848e-06 0.0000000e+00 
-2.9471807e-05 -2.0274607e-05 0.0000000e+00 
-2.2256976e-05 -2.1907408e-05 0.0000000e+00 
4.0152077e-05 1.9645762e-05 0.0000000e+00 
0.0000000e+00 0.0000000e+00 0.0000000e+00 
-2.6781152e-05 1.9134237e-05 0.0000000e+00 
-5.2956180e-05 -8.2992847e-05 0.0000000e+00 
-3.7361864e-05 -6.1689825e-05 0.0000000e+00 
1.7623350e-04 5.8962290e-05 0.0000000e+00 
-1.9576812e-04 -2.6431362e-04 0.0000000e+00 
0.0000000e+00 0.0000000e+00 0.0000000e+00 
-3.5752753e-05 -3.1812125e-04 0.0000000e+00 
-1.8549519e-05 -1.0906473e-04 0.0000000e+00 
3.9168741e-04 -1.1702457e-03 0.0000000e+00 
-3.9548401e-04 -1.4772451e-03 0.0000000e+00 
0.0000000e+00 0.0000000e+00 0.0000000e+00 
5.5288008e-05 -3.7244201e-04 0.0000000e+00 
3.6329270e-06 -8.9547961e-05 0.0000000e+00 
-5.2696603e-05 -5.2385330e-03 0.0000000e+00 
3.7353701e-04 -9.9466229e-04 0.0000000e+00 
0.0000000e+00 0.0000000e+00 0.0000000e+00 
-3.8375721e-05 -1.7216762e-04 0.0000000e+00 
1.1355361e-05 -4.1049632e-05 0.0000000e+00 
-2.9693401e-04 -5.7754747e-04 0.0000000e+00 
1.3535954e-04 -1.9282363e-04 0.0000000e+00 
0.0000000e+00 0.0000000e+00 0.0000000e+00 
7.0328438e-06 -7.4917676e-05 0.0000000e+00 
4.9730556e-06 -2.7787179e-05 0.0000000e+00 
-7.8354067e-05 -5.8131398e-05 0.0000000e+00 
-2.4986768e-05 -1.0746419e-04 0.0000000e+00 
0.0000000e+00 0.0000000e+00 0.0000000e+00 
3.3962111e-05 -8.7907523e-05 0.0000000e+00 
5.8299515e-06 -3.5881971e-05 0.0000000e+00 
5.3933149e-05 -4.1229077e-04 0.0000000e+00 
-9.8102333e-05 -3.6748918e-04 0.0000000e+00 
0.0000000e+00 0.0000000e+00 0.0000000e+00 
8.3507857e-06 -1.0282690e-04 0.0000000e+00 
-1.2248243e-05 -1.7097959e-03 0.0000000e+00 
1.0055064e-05 -3.1589148e-05 0.0000000e+00 
1.4722688e-04 -3.4048920e-04 0.0000000e+00 
0.0000000e+00 0.0000000e+00 0.0000000e+00 
-5.5278806e-06 -5.7372930e-05 0.0000000e+00 
-1.2681753e-04 -1.7743140e-04 0.0000000e+00 
7.9280235e-06 -1.4286717e-05 0.0000000e+00 
4.5444271e-05 -5.1463030e-05 0.0000000e+00 
0.0000000e+00 0.0000000e+00 0.0000000e+00 
-3.6409248e-05 -2.8754806e-05 0.0000000e+00 
3.3254541e-06 -7.2954167e-06 0.0000000e+00 
0.0000000e+00 0.0000000e+00 0.0000000e+00 
2.4089288e-06 -2.0951452e-06 0.0000000e+00 
4.4973440e-06 2.6833957e-06 0.0000000e+00 
-1.3431460e-05 -9.9924853e-07 0.0000000e+00 
0.0000000e+00 0.0000000e+00 0.0000000e+00 
0.0000000e+00 0.0000000e+00 0.0000000e+00 
0.0000000e+00 0.0000000e+00 0.0000000e+00 
0.0000000e+00 0.0000000e+00 0.0000000e+00 
0.0000000e+00 0.0000000e+00 0.0000000e+00 
CELL_DATA 38
FIELD FieldData 0
