# vtk DataFile Version 4.0
vtk output
ASCII
DATASET UNSTRUCTURED_GRID
POINTS 101 float
0.0000000e+00 0.0000000e+00 0.0000000e+00 
0.0000000e+00 2.5000000e-01 0.0000000e+00 
2.5000000e-01 0.0000000e+00 0.0000000e+00 
2.5000000e-01 2.5000000e-01 0.0000000e+00 
0.0000000e+00 5.0000000e-01 0.0000000e+00 
5.0000000e-01 0.0000000e+00 0.0000000e+00 
3.5416666e-01 5.0558227e-01 0.0000000e+00 
6.0416669e-01 2.5558227e-01 0.0000000e+00 
0.0000000e+00 7.5000000e-01 0.0000000e+00 
7.5000000e-01 0.0000000e+00 0.0000000e+00 
2.5000000e-01 7.5000000e-01 0.0000000e+00 
7.0833331e-01 5.1116455e-01 0.0000000e+00 
8.5416669e-01 2.5558227e-01 0.0000000e+00 
6.0416669e-01 7.5558227e-01 0.0000000e+00 
0.0000000e+00 1.0000000e+00 0.0000000e+00 
1.0000000e+00 0.0000000e+00 0.0000000e+00 
2.5000000e-01 1.0000000e+00 0.0000000e+00 
9.7916669e-01 5.3907591e-01 0.0000000e+00 
5.0000000e-01 1.0000000e+00 0.0000000e+00 
8.5416669e-01 7.5558227e-01 0.0000000e+00 
1.1250000e+00 2.8349364e-01 0.0000000e+00 
7.5000000e-01 1.0000000e+00 0.0000000e+00 
1.2500000e+00 0.0000000e+00 0.0000000e+00 
1.1250000e+00 7.8349364e-01 0.0000000e+00 
1.2500000e+00 5.6698728e-01 0.0000000e+00 
1.3750000e+00 2.8349364e-01 0.0000000e+00 
1.0000000e+00 1.0000000e+00 0.0000000e+00 
1.5000000e+00 0.0000000e+00 0.0000000e+00 
1.3750000e+00 7.8349364e-01 0.0000000e+00 
1.2500000e+00 1.0000000e+00 0.0000000e+00 
1.5000000e+00 5.6698728e-01 0.0000000e+00 
1.6250000e+00 2.8349364e-01 0.0000000e+00 
1.7500000e+00 0.0000000e+00 0.0000000e+00 
1.5000000e+00 1.0000000e+00 0.0000000e+00 
1.6250000e+00 7.8349364e-01 0.0000000e+00 
1.7500000e+00 5.6698728e-01 0.0000000e+00 
1.8750000e+00 2.8349364e-01 0.0000000e+00 
2.0000000e+00 0.0000000e+00 0.0000000e+00 
1.7500000e+00 1.0000000e+00 0.0000000e+00 
1.8750000e+00 7.8349364e-01 0.0000000e+00 
2.0000000e+00 5.6698728e-01 0.0000000e+00 
2.1250000e+00 2.8349364e-01 0.0000000e+00 
2.0000000e+00 1.0000000e+00 0.0000000e+00 
2.2500000e+00 0.0000000e+00 0.0000000e+00 
2.1250000e+00 7.8349364e-01 0.0000000e+00 
2.2500000e+00 5.6698728e-01 0.0000000e+00 
2.3750000e+00 2.8349364e-01 0.0000000e+00 
2.2500000e+00 1.0000000e+00 0.0000000e+00 
2.5000000e+00 0.0000000e+00 0.0000000e+00 
2.3750000e+00 7.8349364e-01 0.0000000e+00 
2.5000000e+00 5.6698728e-01 0.0000000e+00 
2.6250000e+00 2.8349364e-01 0.0000000e+00 
2.5000000e+00 1.0000000e+00 0.0000000e+00 
2.6250000e+00 7.8349364e-01 0.0000000e+00 
2.7500000e+00 0.0000000e+00 0.0000000e+00 
2.7500000e+00 5.6698728e-01 0.0000000e+00 
2.8750000e+00 2.8349364e-01 0.0000000e+00 
2.7500000e+00 1.0000000e+00 0.0000000e+00 
2.8750000e+00 7.8349364e-01 0.0000000e+00 
3.0000000e+00 0.0000000e+00 0.0000000e+00 
3.0000000e+00 5.0000000e-01 0.0000000e+00 
3.1250000e+00 2.1650635e-01 0.0000000e+00 
3.0000000e+00 1.0000000e+00 0.0000000e+00 
3.1250000e+00 7.1650636e-01 0.0000000e+00 
3.2500000e+00 0.0000000e+00 0.0000000e+00 
3.2500000e+00 4.3301269e-01 0.0000000e+00 
3.3750000e+00 2.1650635e-01 0.0000000e+00 
3.2500000e+00 1.0000000e+00 0.0000000e+00 
3.3750000e+00 7.1650636e-01 0.0000000e+00 
3.5000000e+00 0.0000000e+00 0.0000000e+00 
3.5000000e+00 4.3301269e-01 0.0000000e+00 
3.6250000e+00 2.1650635e-01 0.0000000e+00 
3.5000000e+00 1.0000000e+00 0.0000000e+00 
3.6250000e+00 7.1650636e-01 0.0000000e+00 
3.7500000e+00 0.0000000e+00 0.0000000e+00 
3.7500000e+00 4.3301269e-01 0.0000000e+00 
3.8750000e+00 2.1650635e-01 0.0000000e+00 
3.7500000e+00 1.0000000e+00 0.0000000e+00 
3.8750000e+00 7.1650636e-01 0.0000000e+00 
4.0000000e+00 0.0000000e+00 0.0000000e+00 
4.0208335e+00 4.6092409e-01 0.0000000e+00 
4.0000000e+00 1.0000000e+00 0.0000000e+00 
4.1458335e+00 2.4441773e-01 0.0000000e+00 
4.1458335e+00 7.4441773e-01 0.0000000e+00 
4.2500000e+00 0.0000000e+00 0.0000000e+00 
4.2916665e+00 4.8883545e-01 0.0000000e+00 
4.2500000e+00 1.0000000e+00 0.0000000e+00 
4.3958335e+00 2.4441773e-01 0.0000000e+00 
4.3958335e+00 7.4441773e-01 0.0000000e+00 
4.5000000e+00 0.0000000e+00 0.0000000e+00 
4.5000000e+00 1.0000000e+00 0.0000000e+00 
4.6458335e+00 4.9441773e-01 0.0000000e+00 
4.7500000e+00 0.0000000e+00 0.0000000e+00 
4.7500000e+00 2.5000000e-01 0.0000000e+00 
4.7500000e+00 7.5000000e-01 0.0000000e+00 
4.7500000e+00 1.0000000e+00 0.0000000e+00 
5.0000000e+00 0.0000000e+00 0.0000000e+00 
5.0000000e+00 2.5000000e-01 0.0000000e+00 
5.0000000e+00 5.0000000e-01 0.0000000e+00 
5.0000000e+00 7.5000000e-01 0.0000000e+00 
5.0000000e+00 1.0000000e+00 0.0000000e+00 

CELLS 38 266
6 0 5 4 2 3 1
6 79 89 85 84 87 82
6 62 52 55 57 53 58
6 85 89 98 87 93 91
6 79 85 75 82 80 76
6 55 52 45 53 49 50
6 75 85 81 80 83 78
6 79 75 69 76 71 74
6 45 52 42 49 47 44
6 55 45 48 50 46 51
6 69 75 65 71 70 66
6 65 75 72 70 73 68
6 69 65 59 66 61 64
6 59 65 55 61 60 56
6 37 48 45 43 46 41
6 100 90 98 95 94 99
6 26 18 11 21 13 19
6 11 18 4 13 10 6
6 26 11 24 19 17 23
6 24 11 15 17 12 20
6 26 24 33 23 28 29
6 33 24 35 28 30 34
6 35 24 27 30 25 31
6 33 35 42 34 39 38
6 42 35 45 39 40 44
6 45 35 37 40 36 41
6 15 27 24 22 25 20
6 96 98 89 97 93 92
6 81 72 75 77 73 78
6 14 4 18 8 10 16
6 5 15 11 9 12 7
6 48 59 55 54 56 51
6 90 81 85 86 83 88
6 27 37 35 32 36 31
6 72 62 65 67 63 68
6 62 55 65 58 60 63
6 90 85 98 88 91 94
6 5 11 4 7 6 3

CELL_TYPES 38
22
22
22
22
22
22
22
22
22
22
22
22
22
22
22
22
22
22
22
22
22
22
22
22
22
22
22
22
22
22
22
22
22
22
22
22
22
22
POINT_DATA 101
FIELD FieldData 1
DISPLACEMENT 3 101  float
0.0000000e+00 0.0000000e+00 0.0000000e+00 
0.0000000e+00 0.0000000e+00 0.0000000e+00 
0.0000000e+00 0.0000000e+00 0.0000000e+00 
-3.8696082e-12 -1.1821424e-12 0.0000000e+00 
0.0000000e+00 0.0000000e+00 0.0000000e+00 
0.0000000e+00 0.0000000e+00 0.0000000e+00 
-8.5017566e-12 -1.5213560e-12 0.0000000e+00 
-1.7646946e-11 -4.2927944e-12 0.0000000e+00 
0.0000000e+00 0.0000000e+00 0.0000000e+00 
0.0000000e+00 0.0000000e+00 0.0000000e+00 
-6.3423767e-12 -2.2029743e-14 0.0000000e+00 
-4.0202508e-11 -3.4152921e-12 0.0000000e+00 
-4.7284232e-11 -1.1341418e-11 0.0000000e+00 
-3.1034283e-11 1.0231571e-13 0.0000000e+00 
0.0000000e+00 0.0000000e+00 0.0000000e+00 
0.0000000e+00 0.0000000e+00 0.0000000e+00 
-8.6272621e-12 1.9024558e-12 0.0000000e+00 
-1.1323471e-10 -1.2637891e-11 0.0000000e+00 
-2.3927312e-11 3.9629385e-12 0.0000000e+00 
-8.1123948e-11 -1.5306984e-13 0.0000000e+00 
-1.4258707e-10 -3.2677767e-11 0.0000000e+00 
-6.6542272e-11 1.0766077e-11 0.0000000e+00 
0.0000000e+00 0.0000000e+00 0.0000000e+00 
-2.3862423e-10 5.3589654e-12 0.0000000e+00 
-3.3281308e-10 -2.3631277e-11 0.0000000e+00 
-3.8014669e-10 -8.7034914e-11 0.0000000e+00 
-1.7165286e-10 3.1418101e-11 0.0000000e+00 
0.0000000e+00 0.0000000e+00 0.0000000e+00 
-6.2018890e-10 1.6619775e-11 0.0000000e+00 
-4.5461274e-10 7.3568984e-11 0.0000000e+00 
-8.7870927e-10 -7.4113458e-11 0.0000000e+00 
-9.9412356e-10 -2.1707337e-10 0.0000000e+00 
0.0000000e+00 0.0000000e+00 0.0000000e+00 
-1.1853410e-09 2.2092006e-10 0.0000000e+00 
-1.6386775e-09 4.8442000e-11 0.0000000e+00 
-2.2961975e-09 -1.1768185e-10 0.0000000e+00 
-2.6762845e-09 -5.5794774e-10 0.0000000e+00 
0.0000000e+00 0.0000000e+00 0.0000000e+00 
-3.1338736e-09 5.1984467e-10 0.0000000e+00 
-4.2446611e-09 1.5125828e-10 0.0000000e+00 
-6.0007412e-09 -3.9851811e-10 0.0000000e+00 
-7.0659487e-09 -1.3326313e-09 0.0000000e+00 
-8.1558964e-09 1.5572441e-09 0.0000000e+00 
0.0000000e+00 0.0000000e+00 0.0000000e+00 
-1.1175679e-08 4.7528348e-10 0.0000000e+00 
-1.5643597e-08 -6.9914061e-11 0.0000000e+00 
-1.9373147e-08 -3.2280407e-09 0.0000000e+00 
-2.2057664e-08 3.7467851e-09 0.0000000e+00 
0.0000000e+00 0.0000000e+00 0.0000000e+00 
-2.8496579e-08 1.8091516e-09 0.0000000e+00 
-4.0116507e-08 -8.4631296e-10 0.0000000e+00 
-5.2268199e-08 -7.4519724e-09 0.0000000e+00 
-5.7442442e-08 1.3137925e-08 0.0000000e+00 
-7.4496072e-08 6.9941479e-09 0.0000000e+00 
0.0000000e+00 0.0000000e+00 0.0000000e+00 
-1.0476222e-07 6.7703150e-09 0.0000000e+00 
-1.4724581e-07 -1.7813248e-08 0.0000000e+00 
-1.5299611e-07 3.4575915e-08 0.0000000e+00 
-1.8847562e-07 3.5027981e-08 0.0000000e+00 
0.0000000e+00 0.0000000e+00 0.0000000e+00 
-2.8537497e-07 9.6081090e-09 0.0000000e+00 
-3.6761563e-07 -6.9963704e-08 0.0000000e+00 
-3.8009998e-07 1.5578696e-07 0.0000000e+00 
-4.8441331e-07 1.2343256e-07 0.0000000e+00 
0.0000000e+00 0.0000000e+00 0.0000000e+00 
-7.8089016e-07 -8.5922728e-08 0.0000000e+00 
-1.0764386e-06 -2.6871518e-07 0.0000000e+00 
-6.2067016e-07 4.3052134e-07 0.0000000e+00 
-1.3762346e-06 3.4144506e-07 0.0000000e+00 
0.0000000e+00 0.0000000e+00 0.0000000e+00 
-2.2576019e-06 -4.0596632e-07 0.0000000e+00 
-3.0241824e-06 -1.4474791e-06 0.0000000e+00 
-1.1668632e-06 1.7291212e-06 0.0000000e+00 
-4.1994786e-06 9.5651228e-07 0.0000000e+00 
0.0000000e+00 0.0000000e+00 0.0000000e+00 
-6.6675325e-06 -4.7500307e-06 0.0000000e+00 
-6.9191447e-06 -4.1385215e-06 0.0000000e+00 
5.9591257e-06 2.1113146e-06 0.0000000e+00 
-1.4430398e-05 -1.8042449e-06 0.0000000e+00 
0.0000000e+00 0.0000000e+00 0.0000000e+00 
-2.0089610e-05 -1.1388265e-05 0.0000000e+00 
1.8604467e-05 -9.8867586e-06 0.0000000e+00 
-1.9211075e-05 -1.5004169e-05 0.0000000e+00 
-4.5974575e-05 -3.1527921e-05 0.0000000e+00 
0.0000000e+00 0.0000000e+00 0.0000000e+00 
-5.3534943e-05 -5.7234312e-05 0.0000000e+00 
8.8078974e-05 -8.7197419e-05 0.0000000e+00 
-3.4967634e-05 -4.3419845e-05 0.0000000e+00 
-1.3742338e-04 -2.3748686e-04 0.0000000e+00 
0.0000000e+00 0.0000000e+00 0.0000000e+00 
1.2611525e-04 -1.0721914e-03 0.0000000e+00 
-1.0217731e-04 -3.1051401e-04 0.0000000e+00 
0.0000000e+00 0.0000000e+00 0.0000000e+00 
1.2135596e-05 -6.7297005e-05 0.0000000e+00 
-1.3144898e-04 -1.0366609e-03 0.0000000e+00 
3.6455703e-04 -3.3925683e-03 0.0000000e+00 
0.0000000e+00 0.0000000e+00 0.0000000e+00 
0.0000000e+00 0.0000000e+00 0.0000000e+00 
0.0000000e+00 0.0000000e+00 0.0000000e+00 
0.0000000e+00 0.0000000e+00 0.0000000e+00 
0.0000000e+00 0.0000000e+00 0.0000000e+00 
CELL_DATA 38
FIELD FieldData 0
