# vtk DataFile Version 4.0
vtk output
ASCII
DATASET UNSTRUCTURED_GRID
POINTS 101 float
0.0000000e+00 0.0000000e+00 0.0000000e+00 
0.0000000e+00 2.5000000e-01 0.0000000e+00 
2.5000000e-01 0.0000000e+00 0.0000000e+00 
2.5000000e-01 2.5000000e-01 0.0000000e+00 
0.0000000e+00 5.0000000e-01 0.0000000e+00 
5.0000000e-01 0.0000000e+00 0.0000000e+00 
3.5416666e-01 5.0558227e-01 0.0000000e+00 
6.0416669e-01 2.5558227e-01 0.0000000e+00 
0.0000000e+00 7.5000000e-01 0.0000000e+00 
7.5000000e-01 0.0000000e+00 0.0000000e+00 
2.5000000e-01 7.5000000e-01 0.0000000e+00 
7.0833331e-01 5.1116455e-01 0.0000000e+00 
8.5416669e-01 2.5558227e-01 0.0000000e+00 
6.0416669e-01 7.5558227e-01 0.0000000e+00 
0.0000000e+00 1.0000000e+00 0.0000000e+00 
1.0000000e+00 0.0000000e+00 0.0000000e+00 
2.5000000e-01 1.0000000e+00 0.0000000e+00 
9.7916669e-01 5.3907591e-01 0.0000000e+00 
5.0000000e-01 1.0000000e+00 0.0000000e+00 
8.5416669e-01 7.5558227e-01 0.0000000e+00 
1.1250000e+00 2.8349364e-01 0.0000000e+00 
7.5000000e-01 1.0000000e+00 0.0000000e+00 
1.2500000e+00 0.0000000e+00 0.0000000e+00 
1.1250000e+00 7.8349364e-01 0.0000000e+00 
1.2500000e+00 5.6698728e-01 0.0000000e+00 
1.3750000e+00 2.8349364e-01 0.0000000e+00 
1.0000000e+00 1.0000000e+00 0.0000000e+00 
1.5000000e+00 0.0000000e+00 0.0000000e+00 
1.3750000e+00 7.8349364e-01 0.0000000e+00 
1.2500000e+00 1.0000000e+00 0.0000000e+00 
1.5000000e+00 5.6698728e-01 0.0000000e+00 
1.6250000e+00 2.8349364e-01 0.0000000e+00 
1.7500000e+00 0.0000000e+00 0.0000000e+00 
1.5000000e+00 1.0000000e+00 0.0000000e+00 
1.6250000e+00 7.8349364e-01 0.0000000e+00 
1.7500000e+00 5.6698728e-01 0.0000000e+00 
1.8750000e+00 2.8349364e-01 0.0000000e+00 
2.0000000e+00 0.0000000e+00 0.0000000e+00 
1.7500000e+00 1.0000000e+00 0.0000000e+00 
1.8750000e+00 7.8349364e-01 0.0000000e+00 
2.0000000e+00 5.6698728e-01 0.0000000e+00 
2.1250000e+00 2.8349364e-01 0.0000000e+00 
2.0000000e+00 1.0000000e+00 0.0000000e+00 
2.2500000e+00 0.0000000e+00 0.0000000e+00 
2.1250000e+00 7.8349364e-01 0.0000000e+00 
2.2500000e+00 5.6698728e-01 0.0000000e+00 
2.3750000e+00 2.8349364e-01 0.0000000e+00 
2.2500000e+00 1.0000000e+00 0.0000000e+00 
2.5000000e+00 0.0000000e+00 0.0000000e+00 
2.3750000e+00 7.8349364e-01 0.0000000e+00 
2.5000000e+00 5.6698728e-01 0.0000000e+00 
2.6250000e+00 2.8349364e-01 0.0000000e+00 
2.5000000e+00 1.0000000e+00 0.0000000e+00 
2.6250000e+00 7.8349364e-01 0.0000000e+00 
2.7500000e+00 0.0000000e+00 0.0000000e+00 
2.7500000e+00 5.6698728e-01 0.0000000e+00 
2.8750000e+00 2.8349364e-01 0.0000000e+00 
2.7500000e+00 1.0000000e+00 0.0000000e+00 
2.8750000e+00 7.8349364e-01 0.0000000e+00 
3.0000000e+00 0.0000000e+00 0.0000000e+00 
3.0000000e+00 5.0000000e-01 0.0000000e+00 
3.1250000e+00 2.1650635e-01 0.0000000e+00 
3.0000000e+00 1.0000000e+00 0.0000000e+00 
3.1250000e+00 7.1650636e-01 0.0000000e+00 
3.2500000e+00 0.0000000e+00 0.0000000e+00 
3.2500000e+00 4.3301269e-01 0.0000000e+00 
3.3750000e+00 2.1650635e-01 0.0000000e+00 
3.2500000e+00 1.0000000e+00 0.0000000e+00 
3.3750000e+00 7.1650636e-01 0.0000000e+00 
3.5000000e+00 0.0000000e+00 0.0000000e+00 
3.5000000e+00 4.3301269e-01 0.0000000e+00 
3.6250000e+00 2.1650635e-01 0.0000000e+00 
3.5000000e+00 1.0000000e+00 0.0000000e+00 
3.6250000e+00 7.1650636e-01 0.0000000e+00 
3.7500000e+00 0.0000000e+00 0.0000000e+00 
3.7500000e+00 4.3301269e-01 0.0000000e+00 
3.8750000e+00 2.1650635e-01 0.0000000e+00 
3.7500000e+00 1.0000000e+00 0.0000000e+00 
3.8750000e+00 7.1650636e-01 0.0000000e+00 
4.0000000e+00 0.0000000e+00 0.0000000e+00 
4.0208335e+00 4.6092409e-01 0.0000000e+00 
4.0000000e+00 1.0000000e+00 0.0000000e+00 
4.1458335e+00 2.4441773e-01 0.0000000e+00 
4.1458335e+00 7.4441773e-01 0.0000000e+00 
4.2500000e+00 0.0000000e+00 0.0000000e+00 
4.2916665e+00 4.8883545e-01 0.0000000e+00 
4.2500000e+00 1.0000000e+00 0.0000000e+00 
4.3958335e+00 2.4441773e-01 0.0000000e+00 
4.3958335e+00 7.4441773e-01 0.0000000e+00 
4.5000000e+00 0.0000000e+00 0.0000000e+00 
4.5000000e+00 1.0000000e+00 0.0000000e+00 
4.6458335e+00 4.9441773e-01 0.0000000e+00 
4.7500000e+00 0.0000000e+00 0.0000000e+00 
4.7500000e+00 2.5000000e-01 0.0000000e+00 
4.7500000e+00 7.5000000e-01 0.0000000e+00 
4.7500000e+00 1.0000000e+00 0.0000000e+00 
5.0000000e+00 0.0000000e+00 0.0000000e+00 
5.0000000e+00 2.5000000e-01 0.0000000e+00 
5.0000000e+00 5.0000000e-01 0.0000000e+00 
5.0000000e+00 7.5000000e-01 0.0000000e+00 
5.0000000e+00 1.0000000e+00 0.0000000e+00 

CELLS 38 266
6 0 5 4 2 3 1
6 79 89 85 84 87 82
6 62 52 55 57 53 58
6 85 89 98 87 93 91
6 79 85 75 82 80 76
6 55 52 45 53 49 50
6 75 85 81 80 83 78
6 79 75 69 76 71 74
6 45 52 42 49 47 44
6 55 45 48 50 46 51
6 69 75 65 71 70 66
6 65 75 72 70 73 68
6 69 65 59 66 61 64
6 59 65 55 61 60 56
6 37 48 45 43 46 41
6 100 90 98 95 94 99
6 26 18 11 21 13 19
6 11 18 4 13 10 6
6 26 11 24 19 17 23
6 24 11 15 17 12 20
6 26 24 33 23 28 29
6 33 24 35 28 30 34
6 35 24 27 30 25 31
6 33 35 42 34 39 38
6 42 35 45 39 40 44
6 45 35 37 40 36 41
6 15 27 24 22 25 20
6 96 98 89 97 93 92
6 81 72 75 77 73 78
6 14 4 18 8 10 16
6 5 15 11 9 12 7
6 48 59 55 54 56 51
6 90 81 85 86 83 88
6 27 37 35 32 36 31
6 72 62 65 67 63 68
6 62 55 65 58 60 63
6 90 85 98 88 91 94
6 5 11 4 7 6 3

CELL_TYPES 38
22
22
22
22
22
22
22
22
22
22
22
22
22
22
22
22
22
22
22
22
22
22
22
22
22
22
22
22
22
22
22
22
22
22
22
22
22
22
POINT_DATA 101
FIELD FieldData 1
DISPLACEMENT 3 101  float
0.0000000e+00 0.0000000e+00 0.0000000e+00 
0.0000000e+00 0.0000000e+00 0.0000000e+00 
0.0000000e+00 0.0000000e+00 0.0000000e+00 
-6.9302200e-06 4.2203424e-06 0.0000000e+00 
0.0000000e+00 0.0000000e+00 0.0000000e+00 
0.0000000e+00 0.0000000e+00 0.0000000e+00 
-9.5677606e-06 1.5978245e-05 0.0000000e+00 
-3.0166404e-05 9.8642840e-06 0.0000000e+00 
0.0000000e+00 0.0000000e+00 0.0000000e+00 
0.0000000e+00 0.0000000e+00 0.0000000e+00 
-1.1763775e-06 1.4045248e-05 0.0000000e+00 
-3.1250307e-05 3.0198105e-05 0.0000000e+00 
-6.6100351e-05 4.4754743e-06 0.0000000e+00 
7.3434950e-07 3.5754292e-05 0.0000000e+00 
0.0000000e+00 0.0000000e+00 0.0000000e+00 
0.0000000e+00 0.0000000e+00 0.0000000e+00 
-3.9212346e-06 1.3589719e-05 0.0000000e+00 
-6.4452492e-05 2.2218703e-05 0.0000000e+00 
1.2778944e-06 2.9585455e-05 0.0000000e+00 
8.3330488e-06 4.1232230e-05 0.0000000e+00 
-1.3925989e-04 -2.2359824e-05 0.0000000e+00 
3.1681102e-05 3.7024773e-05 0.0000000e+00 
0.0000000e+00 0.0000000e+00 0.0000000e+00 
3.6259047e-05 1.5618454e-05 0.0000000e+00 
-1.1700698e-04 -4.0504565e-05 0.0000000e+00 
-2.4537134e-04 -1.1179704e-04 0.0000000e+00 
8.7141394e-05 2.5966065e-05 0.0000000e+00 
0.0000000e+00 0.0000000e+00 0.0000000e+00 
6.4162290e-05 -1.0761668e-04 0.0000000e+00 
2.2858630e-04 -4.6562775e-05 0.0000000e+00 
-2.5044827e-04 -2.5362542e-04 0.0000000e+00 
-3.8485209e-04 -3.2460311e-04 0.0000000e+00 
0.0000000e+00 0.0000000e+00 0.0000000e+00 
4.4830370e-04 -2.6476724e-04 0.0000000e+00 
7.9032536e-05 -4.6413281e-04 0.0000000e+00 
-4.6494728e-04 -8.1221288e-04 0.0000000e+00 
-4.8801661e-04 -7.0929795e-04 0.0000000e+00 
0.0000000e+00 0.0000000e+00 0.0000000e+00 
8.8880357e-04 -8.4940484e-04 0.0000000e+00 
1.7319120e-05 -1.3066111e-03 0.0000000e+00 
-5.8268470e-04 -1.8964616e-03 0.0000000e+00 
-4.1121367e-04 -1.1898975e-03 0.0000000e+00 
1.4564949e-03 -1.9465921e-03 0.0000000e+00 
0.0000000e+00 0.0000000e+00 0.0000000e+00 
-3.9002000e-04 -3.6317552e-03 0.0000000e+00 
-3.0152933e-04 -3.1633135e-03 0.0000000e+00 
-7.7604644e-05 -1.4519899e-03 0.0000000e+00 
8.0633356e-04 -7.0459913e-03 0.0000000e+00 
0.0000000e+00 0.0000000e+00 0.0000000e+00 
-5.6455177e-05 -5.4619042e-03 0.0000000e+00 
2.2236811e-04 -3.2083518e-03 0.0000000e+00 
2.3270615e-04 -1.2989998e-03 0.0000000e+00 
-6.4009055e-04 -7.5650802e-03 0.0000000e+00 
3.8297713e-04 -4.0458892e-03 0.0000000e+00 
0.0000000e+00 0.0000000e+00 0.0000000e+00 
3.9066642e-04 -2.1895722e-03 0.0000000e+00 
2.8979607e-04 -9.6840120e-04 0.0000000e+00 
-9.3702791e-04 -3.0061542e-03 0.0000000e+00 
7.5445743e-05 -2.0422272e-03 0.0000000e+00 
0.0000000e+00 0.0000000e+00 0.0000000e+00 
2.6219510e-04 -1.3778633e-03 0.0000000e+00 
2.2292342e-04 -5.6794228e-04 0.0000000e+00 
-4.3276849e-04 -1.7289476e-03 0.0000000e+00 
-7.0787391e-05 -1.6741888e-03 0.0000000e+00 
0.0000000e+00 0.0000000e+00 0.0000000e+00 
2.5591752e-04 -1.0364318e-03 0.0000000e+00 
2.2008804e-04 -4.5966153e-04 0.0000000e+00 
-3.2408390e-04 -2.6600093e-03 0.0000000e+00 
8.6642331e-06 -1.7204058e-03 0.0000000e+00 
0.0000000e+00 0.0000000e+00 0.0000000e+00 
2.8266609e-04 -8.1858202e-04 0.0000000e+00 
2.2489083e-04 -3.2711856e-04 0.0000000e+00 
-4.7418955e-04 -2.5216127e-03 0.0000000e+00 
1.5805081e-04 -1.1666205e-03 0.0000000e+00 
0.0000000e+00 0.0000000e+00 0.0000000e+00 
2.6540193e-04 -4.8158332e-04 0.0000000e+00 
1.9100655e-04 -1.8502973e-04 0.0000000e+00 
-4.8778689e-04 -9.1123057e-04 0.0000000e+00 
9.3622868e-05 -4.8104624e-04 0.0000000e+00 
0.0000000e+00 0.0000000e+00 0.0000000e+00 
1.9264684e-04 -2.1363287e-04 0.0000000e+00 
-3.4716848e-04 -2.9632938e-04 0.0000000e+00 
1.3963741e-04 -8.6878783e-05 0.0000000e+00 
1.0950920e-05 -1.3366446e-04 0.0000000e+00 
0.0000000e+00 0.0000000e+00 0.0000000e+00 
1.0870427e-04 -6.2241292e-05 0.0000000e+00 
-1.8612109e-04 -8.2988110e-05 0.0000000e+00 
8.2558872e-05 -2.9848507e-05 0.0000000e+00 
3.9399373e-07 -1.6396547e-05 0.0000000e+00 
0.0000000e+00 0.0000000e+00 0.0000000e+00 
-7.0919632e-05 1.3343673e-06 0.0000000e+00 
3.8476621e-05 4.5066508e-06 0.0000000e+00 
0.0000000e+00 0.0000000e+00 0.0000000e+00 
2.5994128e-05 -1.9720669e-06 0.0000000e+00 
-2.5124048e-06 1.5129065e-05 0.0000000e+00 
-2.5007705e-05 9.6763406e-06 0.0000000e+00 
0.0000000e+00 0.0000000e+00 0.0000000e+00 
0.0000000e+00 0.0000000e+00 0.0000000e+00 
0.0000000e+00 0.0000000e+00 0.0000000e+00 
0.0000000e+00 0.0000000e+00 0.0000000e+00 
0.0000000e+00 0.0000000e+00 0.0000000e+00 
CELL_DATA 38
FIELD FieldData 0
