# vtk DataFile Version 4.0
vtk output
ASCII
DATASET UNSTRUCTURED_GRID
POINTS 101 float
0.0000000e+00 0.0000000e+00 0.0000000e+00 
0.0000000e+00 2.5000000e-01 0.0000000e+00 
2.5000000e-01 0.0000000e+00 0.0000000e+00 
2.5000000e-01 2.5000000e-01 0.0000000e+00 
0.0000000e+00 5.0000000e-01 0.0000000e+00 
5.0000000e-01 0.0000000e+00 0.0000000e+00 
3.5416666e-01 5.0558227e-01 0.0000000e+00 
6.0416669e-01 2.5558227e-01 0.0000000e+00 
0.0000000e+00 7.5000000e-01 0.0000000e+00 
7.5000000e-01 0.0000000e+00 0.0000000e+00 
2.5000000e-01 7.5000000e-01 0.0000000e+00 
7.0833331e-01 5.1116455e-01 0.0000000e+00 
8.5416669e-01 2.5558227e-01 0.0000000e+00 
6.0416669e-01 7.5558227e-01 0.0000000e+00 
0.0000000e+00 1.0000000e+00 0.0000000e+00 
1.0000000e+00 0.0000000e+00 0.0000000e+00 
2.5000000e-01 1.0000000e+00 0.0000000e+00 
9.7916669e-01 5.3907591e-01 0.0000000e+00 
5.0000000e-01 1.0000000e+00 0.0000000e+00 
8.5416669e-01 7.5558227e-01 0.0000000e+00 
1.1250000e+00 2.8349364e-01 0.0000000e+00 
7.5000000e-01 1.0000000e+00 0.0000000e+00 
1.2500000e+00 0.0000000e+00 0.0000000e+00 
1.1250000e+00 7.8349364e-01 0.0000000e+00 
1.2500000e+00 5.6698728e-01 0.0000000e+00 
1.3750000e+00 2.8349364e-01 0.0000000e+00 
1.0000000e+00 1.0000000e+00 0.0000000e+00 
1.5000000e+00 0.0000000e+00 0.0000000e+00 
1.3750000e+00 7.8349364e-01 0.0000000e+00 
1.2500000e+00 1.0000000e+00 0.0000000e+00 
1.5000000e+00 5.6698728e-01 0.0000000e+00 
1.6250000e+00 2.8349364e-01 0.0000000e+00 
1.7500000e+00 0.0000000e+00 0.0000000e+00 
1.5000000e+00 1.0000000e+00 0.0000000e+00 
1.6250000e+00 7.8349364e-01 0.0000000e+00 
1.7500000e+00 5.6698728e-01 0.0000000e+00 
1.8750000e+00 2.8349364e-01 0.0000000e+00 
2.0000000e+00 0.0000000e+00 0.0000000e+00 
1.7500000e+00 1.0000000e+00 0.0000000e+00 
1.8750000e+00 7.8349364e-01 0.0000000e+00 
2.0000000e+00 5.6698728e-01 0.0000000e+00 
2.1250000e+00 2.8349364e-01 0.0000000e+00 
2.0000000e+00 1.0000000e+00 0.0000000e+00 
2.2500000e+00 0.0000000e+00 0.0000000e+00 
2.1250000e+00 7.8349364e-01 0.0000000e+00 
2.2500000e+00 5.6698728e-01 0.0000000e+00 
2.3750000e+00 2.8349364e-01 0.0000000e+00 
2.2500000e+00 1.0000000e+00 0.0000000e+00 
2.5000000e+00 0.0000000e+00 0.0000000e+00 
2.3750000e+00 7.8349364e-01 0.0000000e+00 
2.5000000e+00 5.6698728e-01 0.0000000e+00 
2.6250000e+00 2.8349364e-01 0.0000000e+00 
2.5000000e+00 1.0000000e+00 0.0000000e+00 
2.6250000e+00 7.8349364e-01 0.0000000e+00 
2.7500000e+00 0.0000000e+00 0.0000000e+00 
2.7500000e+00 5.6698728e-01 0.0000000e+00 
2.8750000e+00 2.8349364e-01 0.0000000e+00 
2.7500000e+00 1.0000000e+00 0.0000000e+00 
2.8750000e+00 7.8349364e-01 0.0000000e+00 
3.0000000e+00 0.0000000e+00 0.0000000e+00 
3.0000000e+00 5.0000000e-01 0.0000000e+00 
3.1250000e+00 2.1650635e-01 0.0000000e+00 
3.0000000e+00 1.0000000e+00 0.0000000e+00 
3.1250000e+00 7.1650636e-01 0.0000000e+00 
3.2500000e+00 0.0000000e+00 0.0000000e+00 
3.2500000e+00 4.3301269e-01 0.0000000e+00 
3.3750000e+00 2.1650635e-01 0.0000000e+00 
3.2500000e+00 1.0000000e+00 0.0000000e+00 
3.3750000e+00 7.1650636e-01 0.0000000e+00 
3.5000000e+00 0.0000000e+00 0.0000000e+00 
3.5000000e+00 4.3301269e-01 0.0000000e+00 
3.6250000e+00 2.1650635e-01 0.0000000e+00 
3.5000000e+00 1.0000000e+00 0.0000000e+00 
3.6250000e+00 7.1650636e-01 0.0000000e+00 
3.7500000e+00 0.0000000e+00 0.0000000e+00 
3.7500000e+00 4.3301269e-01 0.0000000e+00 
3.8750000e+00 2.1650635e-01 0.0000000e+00 
3.7500000e+00 1.0000000e+00 0.0000000e+00 
3.8750000e+00 7.1650636e-01 0.0000000e+00 
4.0000000e+00 0.0000000e+00 0.0000000e+00 
4.0208335e+00 4.6092409e-01 0.0000000e+00 
4.0000000e+00 1.0000000e+00 0.0000000e+00 
4.1458335e+00 2.4441773e-01 0.0000000e+00 
4.1458335e+00 7.4441773e-01 0.0000000e+00 
4.2500000e+00 0.0000000e+00 0.0000000e+00 
4.2916665e+00 4.8883545e-01 0.0000000e+00 
4.2500000e+00 1.0000000e+00 0.0000000e+00 
4.3958335e+00 2.4441773e-01 0.0000000e+00 
4.3958335e+00 7.4441773e-01 0.0000000e+00 
4.5000000e+00 0.0000000e+00 0.0000000e+00 
4.5000000e+00 1.0000000e+00 0.0000000e+00 
4.6458335e+00 4.9441773e-01 0.0000000e+00 
4.7500000e+00 0.0000000e+00 0.0000000e+00 
4.7500000e+00 2.5000000e-01 0.0000000e+00 
4.7500000e+00 7.5000000e-01 0.0000000e+00 
4.7500000e+00 1.0000000e+00 0.0000000e+00 
5.0000000e+00 0.0000000e+00 0.0000000e+00 
5.0000000e+00 2.5000000e-01 0.0000000e+00 
5.0000000e+00 5.0000000e-01 0.0000000e+00 
5.0000000e+00 7.5000000e-01 0.0000000e+00 
5.0000000e+00 1.0000000e+00 0.0000000e+00 

CELLS 38 266
6 0 5 4 2 3 1
6 79 89 85 84 87 82
6 62 52 55 57 53 58
6 85 89 98 87 93 91
6 79 85 75 82 80 76
6 55 52 45 53 49 50
6 75 85 81 80 83 78
6 79 75 69 76 71 74
6 45 52 42 49 47 44
6 55 45 48 50 46 51
6 69 75 65 71 70 66
6 65 75 72 70 73 68
6 69 65 59 66 61 64
6 59 65 55 61 60 56
6 37 48 45 43 46 41
6 100 90 98 95 94 99
6 26 18 11 21 13 19
6 11 18 4 13 10 6
6 26 11 24 19 17 23
6 24 11 15 17 12 20
6 26 24 33 23 28 29
6 33 24 35 28 30 34
6 35 24 27 30 25 31
6 33 35 42 34 39 38
6 42 35 45 39 40 44
6 45 35 37 40 36 41
6 15 27 24 22 25 20
6 96 98 89 97 93 92
6 81 72 75 77 73 78
6 14 4 18 8 10 16
6 5 15 11 9 12 7
6 48 59 55 54 56 51
6 90 81 85 86 83 88
6 27 37 35 32 36 31
6 72 62 65 67 63 68
6 62 55 65 58 60 63
6 90 85 98 88 91 94
6 5 11 4 7 6 3

CELL_TYPES 38
22
22
22
22
22
22
22
22
22
22
22
22
22
22
22
22
22
22
22
22
22
22
22
22
22
22
22
22
22
22
22
22
22
22
22
22
22
22
POINT_DATA 101
FIELD FieldData 1
DISPLACEMENT 3 101  float
0.0000000e+00 0.0000000e+00 0.0000000e+00 
0.0000000e+00 0.0000000e+00 0.0000000e+00 
0.0000000e+00 0.0000000e+00 0.0000000e+00 
-6.2376785e-07 -6.3822782e-08 0.0000000e+00 
0.0000000e+00 0.0000000e+00 0.0000000e+00 
0.0000000e+00 0.0000000e+00 0.0000000e+00 
-8.3137837e-07 1.4883854e-07 0.0000000e+00 
-3.3050389e-06 -1.0584528e-06 0.0000000e+00 
0.0000000e+00 0.0000000e+00 0.0000000e+00 
0.0000000e+00 0.0000000e+00 0.0000000e+00 
-4.3444089e-07 1.6081002e-07 0.0000000e+00 
-4.5955840e-06 -2.6016062e-06 0.0000000e+00 
-8.8014203e-06 -4.5124684e-06 0.0000000e+00 
-2.1986700e-06 5.2139558e-07 0.0000000e+00 
0.0000000e+00 0.0000000e+00 0.0000000e+00 
0.0000000e+00 0.0000000e+00 0.0000000e+00 
-4.9780795e-07 2.7846815e-07 0.0000000e+00 
-2.2373191e-05 -6.9338466e-06 0.0000000e+00 
-1.0330256e-06 1.0462334e-06 0.0000000e+00 
-7.8580733e-06 -4.0645676e-07 0.0000000e+00 
-2.5117635e-05 -2.2617314e-05 0.0000000e+00 
3.2926334e-06 1.2517252e-06 0.0000000e+00 
0.0000000e+00 0.0000000e+00 0.0000000e+00 
-2.1032096e-05 -1.1363242e-05 0.0000000e+00 
-7.2815681e-05 -8.6097432e-05 0.0000000e+00 
-3.9428098e-05 -6.3926753e-05 0.0000000e+00 
1.2558265e-05 -8.2374900e-06 0.0000000e+00 
0.0000000e+00 0.0000000e+00 0.0000000e+00 
-1.1759634e-04 -2.0495614e-04 0.0000000e+00 
1.5500990e-04 -5.0089799e-05 0.0000000e+00 
-1.1858687e-04 -2.9257697e-04 0.0000000e+00 
-2.6756315e-05 -1.0657511e-04 0.0000000e+00 
0.0000000e+00 0.0000000e+00 0.0000000e+00 
3.6233448e-04 -8.7243901e-04 0.0000000e+00 
-2.5797402e-04 -1.0489359e-03 0.0000000e+00 
1.8920231e-06 -5.1402336e-04 0.0000000e+00 
2.8686436e-05 -1.0256499e-04 0.0000000e+00 
0.0000000e+00 0.0000000e+00 0.0000000e+00 
-4.3133645e-05 -3.8525558e-03 0.0000000e+00 
3.2076563e-04 -9.1288448e-04 0.0000000e+00 
1.1338050e-04 -2.4784313e-04 0.0000000e+00 
2.9442843e-05 -6.2523788e-05 0.0000000e+00 
-3.7111674e-04 -2.6734066e-04 0.0000000e+00 
0.0000000e+00 0.0000000e+00 0.0000000e+00 
6.2210718e-05 -5.8160455e-05 0.0000000e+00 
4.6469660e-05 -9.2138464e-05 0.0000000e+00 
9.8491682e-06 -3.9069913e-05 0.0000000e+00 
-6.3826621e-05 -1.2643030e-05 0.0000000e+00 
0.0000000e+00 0.0000000e+00 0.0000000e+00 
-3.1139502e-05 -6.1787869e-05 0.0000000e+00 
-1.8113382e-05 -9.9287587e-05 0.0000000e+00 
7.1138004e-07 -3.9041737e-05 0.0000000e+00 
1.2017809e-04 -2.8454565e-04 0.0000000e+00 
-8.2887214e-05 -3.4634967e-04 0.0000000e+00 
0.0000000e+00 0.0000000e+00 0.0000000e+00 
5.2290738e-06 -1.7079264e-04 0.0000000e+00 
1.5100004e-05 -3.5209494e-05 0.0000000e+00 
-1.0113620e-05 -1.2814201e-03 0.0000000e+00 
1.0550780e-04 -3.0370406e-04 0.0000000e+00 
0.0000000e+00 0.0000000e+00 0.0000000e+00 
2.8945275e-05 -5.8489761e-05 0.0000000e+00 
8.5250977e-06 -1.4380983e-05 0.0000000e+00 
-1.1110958e-04 -8.8221168e-05 0.0000000e+00 
3.8468421e-05 -2.4038189e-05 0.0000000e+00 
0.0000000e+00 0.0000000e+00 0.0000000e+00 
1.5648735e-05 -2.4362982e-05 0.0000000e+00 
6.5860395e-06 -6.2474132e-06 0.0000000e+00 
-4.2604188e-05 -2.0282937e-06 0.0000000e+00 
9.2432847e-06 5.0581446e-07 0.0000000e+00 
0.0000000e+00 0.0000000e+00 0.0000000e+00 
5.0209928e-06 -2.2539425e-06 0.0000000e+00 
2.4740200e-06 -1.0044589e-06 0.0000000e+00 
-3.6121278e-06 3.8799353e-06 0.0000000e+00 
2.5753973e-06 8.5470634e-07 0.0000000e+00 
0.0000000e+00 0.0000000e+00 0.0000000e+00 
1.5137183e-06 -6.1524599e-07 0.0000000e+00 
8.7251181e-07 -2.1566575e-07 0.0000000e+00 
-7.9546351e-07 1.1281700e-06 0.0000000e+00 
7.3123596e-07 4.5274845e-07 0.0000000e+00 
0.0000000e+00 0.0000000e+00 0.0000000e+00 
4.4546027e-07 4.9531085e-08 0.0000000e+00 
4.2222464e-07 4.7429103e-07 0.0000000e+00 
2.7014934e-07 -1.8158683e-08 0.0000000e+00 
2.2959698e-07 1.0137615e-07 0.0000000e+00 
0.0000000e+00 0.0000000e+00 0.0000000e+00 
1.4319087e-07 2.2867580e-08 0.0000000e+00 
2.0432051e-07 9.0430959e-08 0.0000000e+00 
8.7380343e-08 -5.9254215e-09 0.0000000e+00 
9.0132048e-08 2.6222370e-08 0.0000000e+00 
0.0000000e+00 0.0000000e+00 0.0000000e+00 
8.4282021e-08 2.8291680e-08 0.0000000e+00 
2.8497213e-08 9.0682700e-10 0.0000000e+00 
0.0000000e+00 0.0000000e+00 0.0000000e+00 
1.6505895e-08 -3.0508192e-09 0.0000000e+00 
2.0042334e-08 1.2074206e-09 0.0000000e+00 
3.1691325e-08 8.2977660e-09 0.0000000e+00 
0.0000000e+00 0.0000000e+00 0.0000000e+00 
0.0000000e+00 0.0000000e+00 0.0000000e+00 
0.0000000e+00 0.0000000e+00 0.0000000e+00 
0.0000000e+00 0.0000000e+00 0.0000000e+00 
0.0000000e+00 0.0000000e+00 0.0000000e+00 
CELL_DATA 38
FIELD FieldData 0
