# vtk DataFile Version 4.0
vtk output
ASCII
DATASET UNSTRUCTURED_GRID
POINTS 251 float
0.0000000e+00 0.0000000e+00 0.0000000e+00 
2.5000000e+01 0.0000000e+00 0.0000000e+00 
1.0000000e-01 0.0000000e+00 0.0000000e+00 
2.0000000e-01 0.0000000e+00 0.0000000e+00 
3.0000001e-01 0.0000000e+00 0.0000000e+00 
4.0000001e-01 0.0000000e+00 0.0000000e+00 
5.0000000e-01 0.0000000e+00 0.0000000e+00 
6.0000002e-01 0.0000000e+00 0.0000000e+00 
6.9999999e-01 0.0000000e+00 0.0000000e+00 
8.0000001e-01 0.0000000e+00 0.0000000e+00 
8.9999998e-01 0.0000000e+00 0.0000000e+00 
1.0000000e+00 0.0000000e+00 0.0000000e+00 
1.1000000e+00 0.0000000e+00 0.0000000e+00 
1.2000000e+00 0.0000000e+00 0.0000000e+00 
1.3000000e+00 0.0000000e+00 0.0000000e+00 
1.4000000e+00 0.0000000e+00 0.0000000e+00 
1.5000000e+00 0.0000000e+00 0.0000000e+00 
1.6000000e+00 0.0000000e+00 0.0000000e+00 
1.7000000e+00 0.0000000e+00 0.0000000e+00 
1.8000000e+00 0.0000000e+00 0.0000000e+00 
1.9000000e+00 0.0000000e+00 0.0000000e+00 
2.0000000e+00 0.0000000e+00 0.0000000e+00 
2.0999999e+00 0.0000000e+00 0.0000000e+00 
2.2000000e+00 0.0000000e+00 0.0000000e+00 
2.3000000e+00 0.0000000e+00 0.0000000e+00 
2.4000001e+00 0.0000000e+00 0.0000000e+00 
2.5000000e+00 0.0000000e+00 0.0000000e+00 
2.5999999e+00 0.0000000e+00 0.0000000e+00 
2.7000000e+00 0.0000000e+00 0.0000000e+00 
2.8000000e+00 0.0000000e+00 0.0000000e+00 
2.9000001e+00 0.0000000e+00 0.0000000e+00 
3.0000000e+00 0.0000000e+00 0.0000000e+00 
3.0999999e+00 0.0000000e+00 0.0000000e+00 
3.2000000e+00 0.0000000e+00 0.0000000e+00 
3.3000000e+00 0.0000000e+00 0.0000000e+00 
3.4000001e+00 0.0000000e+00 0.0000000e+00 
3.5000000e+00 0.0000000e+00 0.0000000e+00 
3.5999999e+00 0.0000000e+00 0.0000000e+00 
3.7000000e+00 0.0000000e+00 0.0000000e+00 
3.8000000e+00 0.0000000e+00 0.0000000e+00 
3.9000001e+00 0.0000000e+00 0.0000000e+00 
4.0000000e+00 0.0000000e+00 0.0000000e+00 
4.0999999e+00 0.0000000e+00 0.0000000e+00 
4.1999998e+00 0.0000000e+00 0.0000000e+00 
4.3000002e+00 0.0000000e+00 0.0000000e+00 
4.4000001e+00 0.0000000e+00 0.0000000e+00 
4.5000000e+00 0.0000000e+00 0.0000000e+00 
4.5999999e+00 0.0000000e+00 0.0000000e+00 
4.6999998e+00 0.0000000e+00 0.0000000e+00 
4.8000002e+00 0.0000000e+00 0.0000000e+00 
4.9000001e+00 0.0000000e+00 0.0000000e+00 
5.0000000e+00 0.0000000e+00 0.0000000e+00 
5.0999999e+00 0.0000000e+00 0.0000000e+00 
5.1999998e+00 0.0000000e+00 0.0000000e+00 
5.3000002e+00 0.0000000e+00 0.0000000e+00 
5.4000001e+00 0.0000000e+00 0.0000000e+00 
5.5000000e+00 0.0000000e+00 0.0000000e+00 
5.5999999e+00 0.0000000e+00 0.0000000e+00 
5.6999998e+00 0.0000000e+00 0.0000000e+00 
5.8000002e+00 0.0000000e+00 0.0000000e+00 
5.9000001e+00 0.0000000e+00 0.0000000e+00 
6.0000000e+00 0.0000000e+00 0.0000000e+00 
6.0999999e+00 0.0000000e+00 0.0000000e+00 
6.1999998e+00 0.0000000e+00 0.0000000e+00 
6.3000002e+00 0.0000000e+00 0.0000000e+00 
6.4000001e+00 0.0000000e+00 0.0000000e+00 
6.5000000e+00 0.0000000e+00 0.0000000e+00 
6.5999999e+00 0.0000000e+00 0.0000000e+00 
6.6999998e+00 0.0000000e+00 0.0000000e+00 
6.8000002e+00 0.0000000e+00 0.0000000e+00 
6.9000001e+00 0.0000000e+00 0.0000000e+00 
7.0000000e+00 0.0000000e+00 0.0000000e+00 
7.0999999e+00 0.0000000e+00 0.0000000e+00 
7.1999998e+00 0.0000000e+00 0.0000000e+00 
7.3000002e+00 0.0000000e+00 0.0000000e+00 
7.4000001e+00 0.0000000e+00 0.0000000e+00 
7.5000000e+00 0.0000000e+00 0.0000000e+00 
7.5999999e+00 0.0000000e+00 0.0000000e+00 
7.6999998e+00 0.0000000e+00 0.0000000e+00 
7.8000002e+00 0.0000000e+00 0.0000000e+00 
7.9000001e+00 0.0000000e+00 0.0000000e+00 
8.0000000e+00 0.0000000e+00 0.0000000e+00 
8.1000004e+00 0.0000000e+00 0.0000000e+00 
8.1999998e+00 0.0000000e+00 0.0000000e+00 
8.3000002e+00 0.0000000e+00 0.0000000e+00 
8.3999996e+00 0.0000000e+00 0.0000000e+00 
8.5000000e+00 0.0000000e+00 0.0000000e+00 
8.6000004e+00 0.0000000e+00 0.0000000e+00 
8.6999998e+00 0.0000000e+00 0.0000000e+00 
8.8000002e+00 0.0000000e+00 0.0000000e+00 
8.8999996e+00 0.0000000e+00 0.0000000e+00 
9.0000000e+00 0.0000000e+00 0.0000000e+00 
9.1000004e+00 0.0000000e+00 0.0000000e+00 
9.1999998e+00 0.0000000e+00 0.0000000e+00 
9.3000002e+00 0.0000000e+00 0.0000000e+00 
9.3999996e+00 0.0000000e+00 0.0000000e+00 
9.5000000e+00 0.0000000e+00 0.0000000e+00 
9.6000004e+00 0.0000000e+00 0.0000000e+00 
9.6999998e+00 0.0000000e+00 0.0000000e+00 
9.8000002e+00 0.0000000e+00 0.0000000e+00 
9.8999996e+00 0.0000000e+00 0.0000000e+00 
1.0000000e+01 0.0000000e+00 0.0000000e+00 
1.0100000e+01 0.0000000e+00 0.0000000e+00 
1.0200000e+01 0.0000000e+00 0.0000000e+00 
1.0300000e+01 0.0000000e+00 0.0000000e+00 
1.0400000e+01 0.0000000e+00 0.0000000e+00 
1.0500000e+01 0.0000000e+00 0.0000000e+00 
1.0600000e+01 0.0000000e+00 0.0000000e+00 
1.0700000e+01 0.0000000e+00 0.0000000e+00 
1.0800000e+01 0.0000000e+00 0.0000000e+00 
1.0900000e+01 0.0000000e+00 0.0000000e+00 
1.1000000e+01 0.0000000e+00 0.0000000e+00 
1.1100000e+01 0.0000000e+00 0.0000000e+00 
1.1200000e+01 0.0000000e+00 0.0000000e+00 
1.1300000e+01 0.0000000e+00 0.0000000e+00 
1.1400000e+01 0.0000000e+00 0.0000000e+00 
1.1500000e+01 0.0000000e+00 0.0000000e+00 
1.1600000e+01 0.0000000e+00 0.0000000e+00 
1.1700000e+01 0.0000000e+00 0.0000000e+00 
1.1800000e+01 0.0000000e+00 0.0000000e+00 
1.1900000e+01 0.0000000e+00 0.0000000e+00 
1.2000000e+01 0.0000000e+00 0.0000000e+00 
1.2100000e+01 0.0000000e+00 0.0000000e+00 
1.2200000e+01 0.0000000e+00 0.0000000e+00 
1.2300000e+01 0.0000000e+00 0.0000000e+00 
1.2400000e+01 0.0000000e+00 0.0000000e+00 
1.2500000e+01 0.0000000e+00 0.0000000e+00 
1.2600000e+01 0.0000000e+00 0.0000000e+00 
1.2700000e+01 0.0000000e+00 0.0000000e+00 
1.2800000e+01 0.0000000e+00 0.0000000e+00 
1.2900000e+01 0.0000000e+00 0.0000000e+00 
1.3000000e+01 0.0000000e+00 0.0000000e+00 
1.3100000e+01 0.0000000e+00 0.0000000e+00 
1.3200000e+01 0.0000000e+00 0.0000000e+00 
1.3300000e+01 0.0000000e+00 0.0000000e+00 
1.3400000e+01 0.0000000e+00 0.0000000e+00 
1.3500000e+01 0.0000000e+00 0.0000000e+00 
1.3600000e+01 0.0000000e+00 0.0000000e+00 
1.3700000e+01 0.0000000e+00 0.0000000e+00 
1.3800000e+01 0.0000000e+00 0.0000000e+00 
1.3900000e+01 0.0000000e+00 0.0000000e+00 
1.4000000e+01 0.0000000e+00 0.0000000e+00 
1.4100000e+01 0.0000000e+00 0.0000000e+00 
1.4200000e+01 0.0000000e+00 0.0000000e+00 
1.4300000e+01 0.0000000e+00 0.0000000e+00 
1.4400000e+01 0.0000000e+00 0.0000000e+00 
1.4500000e+01 0.0000000e+00 0.0000000e+00 
1.4600000e+01 0.0000000e+00 0.0000000e+00 
1.4700000e+01 0.0000000e+00 0.0000000e+00 
1.4800000e+01 0.0000000e+00 0.0000000e+00 
1.4900000e+01 0.0000000e+00 0.0000000e+00 
1.5000000e+01 0.0000000e+00 0.0000000e+00 
1.5100000e+01 0.0000000e+00 0.0000000e+00 
1.5200000e+01 0.0000000e+00 0.0000000e+00 
1.5300000e+01 0.0000000e+00 0.0000000e+00 
1.5400000e+01 0.0000000e+00 0.0000000e+00 
1.5500000e+01 0.0000000e+00 0.0000000e+00 
1.5600000e+01 0.0000000e+00 0.0000000e+00 
1.5700000e+01 0.0000000e+00 0.0000000e+00 
1.5800000e+01 0.0000000e+00 0.0000000e+00 
1.5900000e+01 0.0000000e+00 0.0000000e+00 
1.6000000e+01 0.0000000e+00 0.0000000e+00 
1.6100000e+01 0.0000000e+00 0.0000000e+00 
1.6200001e+01 0.0000000e+00 0.0000000e+00 
1.6299999e+01 0.0000000e+00 0.0000000e+00 
1.6400000e+01 0.0000000e+00 0.0000000e+00 
1.6500000e+01 0.0000000e+00 0.0000000e+00 
1.6600000e+01 0.0000000e+00 0.0000000e+00 
1.6700001e+01 0.0000000e+00 0.0000000e+00 
1.6799999e+01 0.0000000e+00 0.0000000e+00 
1.6900000e+01 0.0000000e+00 0.0000000e+00 
1.7000000e+01 0.0000000e+00 0.0000000e+00 
1.7100000e+01 0.0000000e+00 0.0000000e+00 
1.7200001e+01 0.0000000e+00 0.0000000e+00 
1.7299999e+01 0.0000000e+00 0.0000000e+00 
1.7400000e+01 0.0000000e+00 0.0000000e+00 
1.7500000e+01 0.0000000e+00 0.0000000e+00 
1.7600000e+01 0.0000000e+00 0.0000000e+00 
1.7700001e+01 0.0000000e+00 0.0000000e+00 
1.7799999e+01 0.0000000e+00 0.0000000e+00 
1.7900000e+01 0.0000000e+00 0.0000000e+00 
1.8000000e+01 0.0000000e+00 0.0000000e+00 
1.8100000e+01 0.0000000e+00 0.0000000e+00 
1.8200001e+01 0.0000000e+00 0.0000000e+00 
1.8299999e+01 0.0000000e+00 0.0000000e+00 
1.8400000e+01 0.0000000e+00 0.0000000e+00 
1.8500000e+01 0.0000000e+00 0.0000000e+00 
1.8600000e+01 0.0000000e+00 0.0000000e+00 
1.8700001e+01 0.0000000e+00 0.0000000e+00 
1.8799999e+01 0.0000000e+00 0.0000000e+00 
1.8900000e+01 0.0000000e+00 0.0000000e+00 
1.9000000e+01 0.0000000e+00 0.0000000e+00 
1.9100000e+01 0.0000000e+00 0.0000000e+00 
1.9200001e+01 0.0000000e+00 0.0000000e+00 
1.9299999e+01 0.0000000e+00 0.0000000e+00 
1.9400000e+01 0.0000000e+00 0.0000000e+00 
1.9500000e+01 0.0000000e+00 0.0000000e+00 
1.9600000e+01 0.0000000e+00 0.0000000e+00 
1.9700001e+01 0.0000000e+00 0.0000000e+00 
1.9799999e+01 0.0000000e+00 0.0000000e+00 
1.9900000e+01 0.0000000e+00 0.0000000e+00 
2.0000000e+01 0.0000000e+00 0.0000000e+00 
2.0100000e+01 0.0000000e+00 0.0000000e+00 
2.0200001e+01 0.0000000e+00 0.0000000e+00 
2.0299999e+01 0.0000000e+00 0.0000000e+00 
2.0400000e+01 0.0000000e+00 0.0000000e+00 
2.0500000e+01 0.0000000e+00 0.0000000e+00 
2.0600000e+01 0.0000000e+00 0.0000000e+00 
2.0700001e+01 0.0000000e+00 0.0000000e+00 
2.0799999e+01 0.0000000e+00 0.0000000e+00 
2.0900000e+01 0.0000000e+00 0.0000000e+00 
2.1000000e+01 0.0000000e+00 0.0000000e+00 
2.1100000e+01 0.0000000e+00 0.0000000e+00 
2.1200001e+01 0.0000000e+00 0.0000000e+00 
2.1299999e+01 0.0000000e+00 0.0000000e+00 
2.1400000e+01 0.0000000e+00 0.0000000e+00 
2.1500000e+01 0.0000000e+00 0.0000000e+00 
2.1600000e+01 0.0000000e+00 0.0000000e+00 
2.1700001e+01 0.0000000e+00 0.0000000e+00 
2.1799999e+01 0.0000000e+00 0.0000000e+00 
2.1900000e+01 0.0000000e+00 0.0000000e+00 
2.2000000e+01 0.0000000e+00 0.0000000e+00 
2.2100000e+01 0.0000000e+00 0.0000000e+00 
2.2200001e+01 0.0000000e+00 0.0000000e+00 
2.2299999e+01 0.0000000e+00 0.0000000e+00 
2.2400000e+01 0.0000000e+00 0.0000000e+00 
2.2500000e+01 0.0000000e+00 0.0000000e+00 
2.2600000e+01 0.0000000e+00 0.0000000e+00 
2.2700001e+01 0.0000000e+00 0.0000000e+00 
2.2799999e+01 0.0000000e+00 0.0000000e+00 
2.2900000e+01 0.0000000e+00 0.0000000e+00 
2.3000000e+01 0.0000000e+00 0.0000000e+00 
2.3100000e+01 0.0000000e+00 0.0000000e+00 
2.3200001e+01 0.0000000e+00 0.0000000e+00 
2.3299999e+01 0.0000000e+00 0.0000000e+00 
2.3400000e+01 0.0000000e+00 0.0000000e+00 
2.3500000e+01 0.0000000e+00 0.0000000e+00 
2.3600000e+01 0.0000000e+00 0.0000000e+00 
2.3700001e+01 0.0000000e+00 0.0000000e+00 
2.3799999e+01 0.0000000e+00 0.0000000e+00 
2.3900000e+01 0.0000000e+00 0.0000000e+00 
2.4000000e+01 0.0000000e+00 0.0000000e+00 
2.4100000e+01 0.0000000e+00 0.0000000e+00 
2.4200001e+01 0.0000000e+00 0.0000000e+00 
2.4299999e+01 0.0000000e+00 0.0000000e+00 
2.4400000e+01 0.0000000e+00 0.0000000e+00 
2.4500000e+01 0.0000000e+00 0.0000000e+00 
2.4600000e+01 0.0000000e+00 0.0000000e+00 
2.4700001e+01 0.0000000e+00 0.0000000e+00 
2.4799999e+01 0.0000000e+00 0.0000000e+00 
2.4900000e+01 0.0000000e+00 0.0000000e+00 

CELLS 250 750
2 0 2
2 2 3
2 3 4
2 4 5
2 5 6
2 6 7
2 7 8
2 8 9
2 9 10
2 10 11
2 11 12
2 12 13
2 13 14
2 14 15
2 15 16
2 16 17
2 17 18
2 18 19
2 19 20
2 20 21
2 21 22
2 22 23
2 23 24
2 24 25
2 25 26
2 26 27
2 27 28
2 28 29
2 29 30
2 30 31
2 31 32
2 32 33
2 33 34
2 34 35
2 35 36
2 36 37
2 37 38
2 38 39
2 39 40
2 40 41
2 41 42
2 42 43
2 43 44
2 44 45
2 45 46
2 46 47
2 47 48
2 48 49
2 49 50
2 50 51
2 51 52
2 52 53
2 53 54
2 54 55
2 55 56
2 56 57
2 57 58
2 58 59
2 59 60
2 60 61
2 61 62
2 62 63
2 63 64
2 64 65
2 65 66
2 66 67
2 67 68
2 68 69
2 69 70
2 70 71
2 71 72
2 72 73
2 73 74
2 74 75
2 75 76
2 76 77
2 77 78
2 78 79
2 79 80
2 80 81
2 81 82
2 82 83
2 83 84
2 84 85
2 85 86
2 86 87
2 87 88
2 88 89
2 89 90
2 90 91
2 91 92
2 92 93
2 93 94
2 94 95
2 95 96
2 96 97
2 97 98
2 98 99
2 99 100
2 100 101
2 101 102
2 102 103
2 103 104
2 104 105
2 105 106
2 106 107
2 107 108
2 108 109
2 109 110
2 110 111
2 111 112
2 112 113
2 113 114
2 114 115
2 115 116
2 116 117
2 117 118
2 118 119
2 119 120
2 120 121
2 121 122
2 122 123
2 123 124
2 124 125
2 125 126
2 126 127
2 127 128
2 128 129
2 129 130
2 130 131
2 131 132
2 132 133
2 133 134
2 134 135
2 135 136
2 136 137
2 137 138
2 138 139
2 139 140
2 140 141
2 141 142
2 142 143
2 143 144
2 144 145
2 145 146
2 146 147
2 147 148
2 148 149
2 149 150
2 150 151
2 151 152
2 152 153
2 153 154
2 154 155
2 155 156
2 156 157
2 157 158
2 158 159
2 159 160
2 160 161
2 161 162
2 162 163
2 163 164
2 164 165
2 165 166
2 166 167
2 167 168
2 168 169
2 169 170
2 170 171
2 171 172
2 172 173
2 173 174
2 174 175
2 175 176
2 176 177
2 177 178
2 178 179
2 179 180
2 180 181
2 181 182
2 182 183
2 183 184
2 184 185
2 185 186
2 186 187
2 187 188
2 188 189
2 189 190
2 190 191
2 191 192
2 192 193
2 193 194
2 194 195
2 195 196
2 196 197
2 197 198
2 198 199
2 199 200
2 200 201
2 201 202
2 202 203
2 203 204
2 204 205
2 205 206
2 206 207
2 207 208
2 208 209
2 209 210
2 210 211
2 211 212
2 212 213
2 213 214
2 214 215
2 215 216
2 216 217
2 217 218
2 218 219
2 219 220
2 220 221
2 221 222
2 222 223
2 223 224
2 224 225
2 225 226
2 226 227
2 227 228
2 228 229
2 229 230
2 230 231
2 231 232
2 232 233
2 233 234
2 234 235
2 235 236
2 236 237
2 237 238
2 238 239
2 239 240
2 240 241
2 241 242
2 242 243
2 243 244
2 244 245
2 245 246
2 246 247
2 247 248
2 248 249
2 249 250
2 250 1

CELL_TYPES 250
3
3
3
3
3
3
3
3
3
3
3
3
3
3
3
3
3
3
3
3
3
3
3
3
3
3
3
3
3
3
3
3
3
3
3
3
3
3
3
3
3
3
3
3
3
3
3
3
3
3
3
3
3
3
3
3
3
3
3
3
3
3
3
3
3
3
3
3
3
3
3
3
3
3
3
3
3
3
3
3
3
3
3
3
3
3
3
3
3
3
3
3
3
3
3
3
3
3
3
3
3
3
3
3
3
3
3
3
3
3
3
3
3
3
3
3
3
3
3
3
3
3
3
3
3
3
3
3
3
3
3
3
3
3
3
3
3
3
3
3
3
3
3
3
3
3
3
3
3
3
3
3
3
3
3
3
3
3
3
3
3
3
3
3
3
3
3
3
3
3
3
3
3
3
3
3
3
3
3
3
3
3
3
3
3
3
3
3
3
3
3
3
3
3
3
3
3
3
3
3
3
3
3
3
3
3
3
3
3
3
3
3
3
3
3
3
3
3
3
3
3
3
3
3
3
3
3
3
3
3
3
3
3
3
3
3
3
3
3
3
3
3
3
3
3
3
3
3
3
3
POINT_DATA 251
FIELD FieldData 1
DISPLACEMENT 3 251  float
0.0000000e+00 0.0000000e+00 0.0000000e+00 
0.0000000e+00 0.0000000e+00 0.0000000e+00 
0.0000000e+00 -7.3093488e-06 0.0000000e+00 
0.0000000e+00 -1.4618364e-05 0.0000000e+00 
0.0000000e+00 -2.1926711e-05 0.0000000e+00 
0.0000000e+00 -2.9234059e-05 0.0000000e+00 
0.0000000e+00 -3.6540070e-05 0.0000000e+00 
0.0000000e+00 -4.3844415e-05 0.0000000e+00 
0.0000000e+00 -5.1146752e-05 0.0000000e+00 
0.0000000e+00 -5.8446753e-05 0.0000000e+00 
0.0000000e+00 -6.5744076e-05 0.0000000e+00 
0.0000000e+00 -7.3038384e-05 0.0000000e+00 
0.0000000e+00 -8.0329344e-05 0.0000000e+00 
0.0000000e+00 -8.7616609e-05 0.0000000e+00 
0.0000000e+00 -9.4899850e-05 0.0000000e+00 
0.0000000e+00 -1.0217872e-04 0.0000000e+00 
0.0000000e+00 -1.0945287e-04 0.0000000e+00 
0.0000000e+00 -1.1672197e-04 0.0000000e+00 
0.0000000e+00 -1.2398566e-04 0.0000000e+00 
0.0000000e+00 -1.3124361e-04 0.0000000e+00 
0.0000000e+00 -1.3849547e-04 0.0000000e+00 
0.0000000e+00 -1.4574087e-04 0.0000000e+00 
0.0000000e+00 -1.5297947e-04 0.0000000e+00 
0.0000000e+00 -1.6021091e-04 0.0000000e+00 
0.0000000e+00 -1.6743486e-04 0.0000000e+00 
0.0000000e+00 -1.7465092e-04 0.0000000e+00 
0.0000000e+00 -1.8185878e-04 0.0000000e+00 
0.0000000e+00 -1.8905803e-04 0.0000000e+00 
0.0000000e+00 -1.9624832e-04 0.0000000e+00 
0.0000000e+00 -2.0342930e-04 0.0000000e+00 
0.0000000e+00 -2.1060057e-04 0.0000000e+00 
0.0000000e+00 -2.1776179e-04 0.0000000e+00 
0.0000000e+00 -2.2491255e-04 0.0000000e+00 
0.0000000e+00 -2.3205251e-04 0.0000000e+00 
0.0000000e+00 -2.3918124e-04 0.0000000e+00 
0.0000000e+00 -2.4629841e-04 0.0000000e+00 
0.0000000e+00 -2.5340359e-04 0.0000000e+00 
0.0000000e+00 -2.6049640e-04 0.0000000e+00 
0.0000000e+00 -2.6757643e-04 0.0000000e+00 
0.0000000e+00 -2.7464333e-04 0.0000000e+00 
0.0000000e+00 -2.8169664e-04 0.0000000e+00 
0.0000000e+00 -2.8873599e-04 0.0000000e+00 
0.0000000e+00 -2.9576098e-04 0.0000000e+00 
0.0000000e+00 -3.0277114e-04 0.0000000e+00 
0.0000000e+00 -3.0976612e-04 0.0000000e+00 
0.0000000e+00 -3.1674546e-04 0.0000000e+00 
0.0000000e+00 -3.2370872e-04 0.0000000e+00 
0.0000000e+00 -3.3065552e-04 0.0000000e+00 
0.0000000e+00 -3.3758540e-04 0.0000000e+00 
0.0000000e+00 -3.4449791e-04 0.0000000e+00 
0.0000000e+00 -3.5139261e-04 0.0000000e+00 
0.0000000e+00 -3.5826908e-04 0.0000000e+00 
0.0000000e+00 -3.6512682e-04 0.0000000e+00 
0.0000000e+00 -3.7196541e-04 0.0000000e+00 
0.0000000e+00 -3.7878437e-04 0.0000000e+00 
0.0000000e+00 -3.8558323e-04 0.0000000e+00 
0.0000000e+00 -3.9236154e-04 0.0000000e+00 
0.0000000e+00 -3.9911878e-04 0.0000000e+00 
0.0000000e+00 -4.0585452e-04 0.0000000e+00 
0.0000000e+00 -4.1256822e-04 0.0000000e+00 
0.0000000e+00 -4.1925942e-04 0.0000000e+00 
0.0000000e+00 -4.2592760e-04 0.0000000e+00 
0.0000000e+00 -4.3257224e-04 0.0000000e+00 
0.0000000e+00 -4.3919290e-04 0.0000000e+00 
0.0000000e+00 -4.4578896e-04 0.0000000e+00 
0.0000000e+00 -4.5235996e-04 0.0000000e+00 
0.0000000e+00 -4.5890539e-04 0.0000000e+00 
0.0000000e+00 -4.6542464e-04 0.0000000e+00 
0.0000000e+00 -4.7191721e-04 0.0000000e+00 
0.0000000e+00 -4.7838257e-04 0.0000000e+00 
0.0000000e+00 -4.8482014e-04 0.0000000e+00 
0.0000000e+00 -4.9122935e-04 0.0000000e+00 
0.0000000e+00 -4.9760961e-04 0.0000000e+00 
0.0000000e+00 -5.0396041e-04 0.0000000e+00 
0.0000000e+00 -5.1028113e-04 0.0000000e+00 
0.0000000e+00 -5.1657116e-04 0.0000000e+00 
0.0000000e+00 -5.2282994e-04 0.0000000e+00 
0.0000000e+00 -5.2905688e-04 0.0000000e+00 
0.0000000e+00 -5.3525128e-04 0.0000000e+00 
0.0000000e+00 -5.4141262e-04 0.0000000e+00 
0.0000000e+00 -5.4754020e-04 0.0000000e+00 
0.0000000e+00 -5.5363344e-04 0.0000000e+00 
0.0000000e+00 -5.5969169e-04 0.0000000e+00 
0.0000000e+00 -5.6571426e-04 0.0000000e+00 
0.0000000e+00 -5.7170051e-04 0.0000000e+00 
0.0000000e+00 -5.7764974e-04 0.0000000e+00 
0.0000000e+00 -5.8356137e-04 0.0000000e+00 
0.0000000e+00 -5.8943464e-04 0.0000000e+00 
0.0000000e+00 -5.9526891e-04 0.0000000e+00 
0.0000000e+00 -6.0106342e-04 0.0000000e+00 
0.0000000e+00 -6.0681748e-04 0.0000000e+00 
0.0000000e+00 -6.1253045e-04 0.0000000e+00 
0.0000000e+00 -6.1820151e-04 0.0000000e+00 
0.0000000e+00 -6.2382990e-04 0.0000000e+00 
0.0000000e+00 -6.2941498e-04 0.0000000e+00 
0.0000000e+00 -6.3495594e-04 0.0000000e+00 
0.0000000e+00 -6.4045208e-04 0.0000000e+00 
0.0000000e+00 -6.4590253e-04 0.0000000e+00 
0.0000000e+00 -6.5130653e-04 0.0000000e+00 
0.0000000e+00 -6.5666338e-04 0.0000000e+00 
0.0000000e+00 -6.6197221e-04 0.0000000e+00 
0.0000000e+00 -6.6723221e-04 0.0000000e+00 
0.0000000e+00 -6.7244255e-04 0.0000000e+00 
0.0000000e+00 -6.7760242e-04 0.0000000e+00 
0.0000000e+00 -6.8271102e-04 0.0000000e+00 
0.0000000e+00 -6.8776746e-04 0.0000000e+00 
0.0000000e+00 -6.9277093e-04 0.0000000e+00 
0.0000000e+00 -6.9772045e-04 0.0000000e+00 
0.0000000e+00 -7.0261525e-04 0.0000000e+00 
0.0000000e+00 -7.0745440e-04 0.0000000e+00 
0.0000000e+00 -7.1223703e-04 0.0000000e+00 
0.0000000e+00 -7.1696215e-04 0.0000000e+00 
0.0000000e+00 -7.2162895e-04 0.0000000e+00 
0.0000000e+00 -7.2623638e-04 0.0000000e+00 
0.0000000e+00 -7.3078356e-04 0.0000000e+00 
0.0000000e+00 -7.3526957e-04 0.0000000e+00 
0.0000000e+00 -7.3969341e-04 0.0000000e+00 
0.0000000e+00 -7.4405404e-04 0.0000000e+00 
0.0000000e+00 -7.4835058e-04 0.0000000e+00 
0.0000000e+00 -7.5258198e-04 0.0000000e+00 
0.0000000e+00 -7.5674721e-04 0.0000000e+00 
0.0000000e+00 -7.6084503e-04 0.0000000e+00 
0.0000000e+00 -7.6486910e-04 0.0000000e+00 
0.0000000e+00 -7.6880900e-04 0.0000000e+00 
0.0000000e+00 -7.7265478e-04 0.0000000e+00 
0.0000000e+00 -7.7640248e-04 0.0000000e+00 
0.0000000e+00 -7.8005099e-04 0.0000000e+00 
0.0000000e+00 -7.8359927e-04 0.0000000e+00 
0.0000000e+00 -7.8704621e-04 0.0000000e+00 
0.0000000e+00 -7.9039065e-04 0.0000000e+00 
0.0000000e+00 -7.9363148e-04 0.0000000e+00 
0.0000000e+00 -7.9676759e-04 0.0000000e+00 
0.0000000e+00 -7.9979777e-04 0.0000000e+00 
0.0000000e+00 -8.0272096e-04 0.0000000e+00 
0.0000000e+00 -8.0553588e-04 0.0000000e+00 
0.0000000e+00 -8.0824143e-04 0.0000000e+00 
0.0000000e+00 -8.1083638e-04 0.0000000e+00 
0.0000000e+00 -8.1331952e-04 0.0000000e+00 
0.0000000e+00 -8.1568968e-04 0.0000000e+00 
0.0000000e+00 -8.1794563e-04 0.0000000e+00 
0.0000000e+00 -8.2008610e-04 0.0000000e+00 
0.0000000e+00 -8.2210993e-04 0.0000000e+00 
0.0000000e+00 -8.2401576e-04 0.0000000e+00 
0.0000000e+00 -8.2580239e-04 0.0000000e+00 
0.0000000e+00 -8.2746852e-04 0.0000000e+00 
0.0000000e+00 -8.2901295e-04 0.0000000e+00 
0.0000000e+00 -8.3043426e-04 0.0000000e+00 
0.0000000e+00 -8.3173125e-04 0.0000000e+00 
0.0000000e+00 -8.3290256e-04 0.0000000e+00 
0.0000000e+00 -8.3394692e-04 0.0000000e+00 
0.0000000e+00 -8.3486299e-04 0.0000000e+00 
0.0000000e+00 -8.3564944e-04 0.0000000e+00 
0.0000000e+00 -8.3630485e-04 0.0000000e+00 
0.0000000e+00 -8.3682797e-04 0.0000000e+00 
0.0000000e+00 -8.3721732e-04 0.0000000e+00 
0.0000000e+00 -8.3747169e-04 0.0000000e+00 
0.0000000e+00 -8.3758956e-04 0.0000000e+00 
0.0000000e+00 -8.3756959e-04 0.0000000e+00 
0.0000000e+00 -8.3741045e-04 0.0000000e+00 
0.0000000e+00 -8.3711062e-04 0.0000000e+00 
0.0000000e+00 -8.3666877e-04 0.0000000e+00 
0.0000000e+00 -8.3608343e-04 0.0000000e+00 
0.0000000e+00 -8.3535322e-04 0.0000000e+00 
0.0000000e+00 -8.3447667e-04 0.0000000e+00 
0.0000000e+00 -8.3345233e-04 0.0000000e+00 
0.0000000e+00 -8.3227875e-04 0.0000000e+00 
0.0000000e+00 -8.3095452e-04 0.0000000e+00 
0.0000000e+00 -8.2947814e-04 0.0000000e+00 
0.0000000e+00 -8.2784815e-04 0.0000000e+00 
0.0000000e+00 -8.2606304e-04 0.0000000e+00 
0.0000000e+00 -8.2412135e-04 0.0000000e+00 
0.0000000e+00 -8.2202157e-04 0.0000000e+00 
0.0000000e+00 -8.1976224e-04 0.0000000e+00 
0.0000000e+00 -8.1734173e-04 0.0000000e+00 
0.0000000e+00 -8.1475871e-04 0.0000000e+00 
0.0000000e+00 -8.1201148e-04 0.0000000e+00 
0.0000000e+00 -8.0909859e-04 0.0000000e+00 
0.0000000e+00 -8.0601859e-04 0.0000000e+00 
0.0000000e+00 -8.0276979e-04 0.0000000e+00 
0.0000000e+00 -7.9935073e-04 0.0000000e+00 
0.0000000e+00 -7.9575978e-04 0.0000000e+00 
0.0000000e+00 -7.9199550e-04 0.0000000e+00 
0.0000000e+00 -7.8805623e-04 0.0000000e+00 
0.0000000e+00 -7.8394043e-04 0.0000000e+00 
0.0000000e+00 -7.7964651e-04 0.0000000e+00 
0.0000000e+00 -7.7517296e-04 0.0000000e+00 
0.0000000e+00 -7.7051803e-04 0.0000000e+00 
0.0000000e+00 -7.6568034e-04 0.0000000e+00 
0.0000000e+00 -7.6065806e-04 0.0000000e+00 
0.0000000e+00 -7.5544982e-04 0.0000000e+00 
0.0000000e+00 -7.5005379e-04 0.0000000e+00 
0.0000000e+00 -7.4446853e-04 0.0000000e+00 
0.0000000e+00 -7.3869230e-04 0.0000000e+00 
0.0000000e+00 -7.3272357e-04 0.0000000e+00 
0.0000000e+00 -7.2656060e-04 0.0000000e+00 
0.0000000e+00 -7.2020188e-04 0.0000000e+00 
0.0000000e+00 -7.1364571e-04 0.0000000e+00 
0.0000000e+00 -7.0689042e-04 0.0000000e+00 
0.0000000e+00 -6.9993438e-04 0.0000000e+00 
0.0000000e+00 -6.9277600e-04 0.0000000e+00 
0.0000000e+00 -6.8541354e-04 0.0000000e+00 
0.0000000e+00 -6.7784538e-04 0.0000000e+00 
0.0000000e+00 -6.7006983e-04 0.0000000e+00 
0.0000000e+00 -6.6208525e-04 0.0000000e+00 
0.0000000e+00 -6.5388996e-04 0.0000000e+00 
0.0000000e+00 -6.4548233e-04 0.0000000e+00 
0.0000000e+00 -6.3686061e-04 0.0000000e+00 
0.0000000e+00 -6.2802312e-04 0.0000000e+00 
0.0000000e+00 -6.1896810e-04 0.0000000e+00 
0.0000000e+00 -6.0969405e-04 0.0000000e+00 
0.0000000e+00 -6.0019922e-04 0.0000000e+00 
0.0000000e+00 -5.9048185e-04 0.0000000e+00 
0.0000000e+00 -5.8054028e-04 0.0000000e+00 
0.0000000e+00 -5.7037268e-04 0.0000000e+00 
0.0000000e+00 -5.5997737e-04 0.0000000e+00 
0.0000000e+00 -5.4935290e-04 0.0000000e+00 
0.0000000e+00 -5.3849746e-04 0.0000000e+00 
0.0000000e+00 -5.2740931e-04 0.0000000e+00 
0.0000000e+00 -5.1608647e-04 0.0000000e+00 
0.0000000e+00 -5.0452730e-04 0.0000000e+00 
0.0000000e+00 -4.9273018e-04 0.0000000e+00 
0.0000000e+00 -4.8069382e-04 0.0000000e+00 
0.0000000e+00 -4.6841629e-04 0.0000000e+00 
0.0000000e+00 -4.5589547e-04 0.0000000e+00 
0.0000000e+00 -4.4312931e-04 0.0000000e+00 
0.0000000e+00 -4.3011637e-04 0.0000000e+00 
0.0000000e+00 -4.1685559e-04 0.0000000e+00 
0.0000000e+00 -4.0334553e-04 0.0000000e+00 
0.0000000e+00 -3.8958385e-04 0.0000000e+00 
0.0000000e+00 -3.7556779e-04 0.0000000e+00 
0.0000000e+00 -3.6129548e-04 0.0000000e+00 
0.0000000e+00 -3.4676629e-04 0.0000000e+00 
0.0000000e+00 -3.3197991e-04 0.0000000e+00 
0.0000000e+00 -3.1693440e-04 0.0000000e+00 
0.0000000e+00 -3.0162593e-04 0.0000000e+00 
0.0000000e+00 -2.8605096e-04 0.0000000e+00 
0.0000000e+00 -2.7020893e-04 0.0000000e+00 
0.0000000e+00 -2.5410118e-04 0.0000000e+00 
0.0000000e+00 -2.3772822e-04 0.0000000e+00 
0.0000000e+00 -2.2108539e-04 0.0000000e+00 
0.0000000e+00 -2.0416615e-04 0.0000000e+00 
0.0000000e+00 -1.8696673e-04 0.0000000e+00 
0.0000000e+00 -1.6949112e-04 0.0000000e+00 
0.0000000e+00 -1.5174456e-04 0.0000000e+00 
0.0000000e+00 -1.3372574e-04 0.0000000e+00 
0.0000000e+00 -1.1542310e-04 0.0000000e+00 
0.0000000e+00 -9.6824959e-05 0.0000000e+00 
0.0000000e+00 -7.7933364e-05 0.0000000e+00 
0.0000000e+00 -5.8762183e-05 0.0000000e+00 
0.0000000e+00 -3.9331975e-05 0.0000000e+00 
0.0000000e+00 -1.9713174e-05 0.0000000e+00 
CELL_DATA 250
FIELD FieldData 0
