# vtk DataFile Version 4.0
vtk output
ASCII
DATASET UNSTRUCTURED_GRID
POINTS 251 float
0.0000000e+00 0.0000000e+00 0.0000000e+00 
2.5000000e+01 0.0000000e+00 0.0000000e+00 
1.0000000e-01 0.0000000e+00 0.0000000e+00 
2.0000000e-01 0.0000000e+00 0.0000000e+00 
3.0000001e-01 0.0000000e+00 0.0000000e+00 
4.0000001e-01 0.0000000e+00 0.0000000e+00 
5.0000000e-01 0.0000000e+00 0.0000000e+00 
6.0000002e-01 0.0000000e+00 0.0000000e+00 
6.9999999e-01 0.0000000e+00 0.0000000e+00 
8.0000001e-01 0.0000000e+00 0.0000000e+00 
8.9999998e-01 0.0000000e+00 0.0000000e+00 
1.0000000e+00 0.0000000e+00 0.0000000e+00 
1.1000000e+00 0.0000000e+00 0.0000000e+00 
1.2000000e+00 0.0000000e+00 0.0000000e+00 
1.3000000e+00 0.0000000e+00 0.0000000e+00 
1.4000000e+00 0.0000000e+00 0.0000000e+00 
1.5000000e+00 0.0000000e+00 0.0000000e+00 
1.6000000e+00 0.0000000e+00 0.0000000e+00 
1.7000000e+00 0.0000000e+00 0.0000000e+00 
1.8000000e+00 0.0000000e+00 0.0000000e+00 
1.9000000e+00 0.0000000e+00 0.0000000e+00 
2.0000000e+00 0.0000000e+00 0.0000000e+00 
2.0999999e+00 0.0000000e+00 0.0000000e+00 
2.2000000e+00 0.0000000e+00 0.0000000e+00 
2.3000000e+00 0.0000000e+00 0.0000000e+00 
2.4000001e+00 0.0000000e+00 0.0000000e+00 
2.5000000e+00 0.0000000e+00 0.0000000e+00 
2.5999999e+00 0.0000000e+00 0.0000000e+00 
2.7000000e+00 0.0000000e+00 0.0000000e+00 
2.8000000e+00 0.0000000e+00 0.0000000e+00 
2.9000001e+00 0.0000000e+00 0.0000000e+00 
3.0000000e+00 0.0000000e+00 0.0000000e+00 
3.0999999e+00 0.0000000e+00 0.0000000e+00 
3.2000000e+00 0.0000000e+00 0.0000000e+00 
3.3000000e+00 0.0000000e+00 0.0000000e+00 
3.4000001e+00 0.0000000e+00 0.0000000e+00 
3.5000000e+00 0.0000000e+00 0.0000000e+00 
3.5999999e+00 0.0000000e+00 0.0000000e+00 
3.7000000e+00 0.0000000e+00 0.0000000e+00 
3.8000000e+00 0.0000000e+00 0.0000000e+00 
3.9000001e+00 0.0000000e+00 0.0000000e+00 
4.0000000e+00 0.0000000e+00 0.0000000e+00 
4.0999999e+00 0.0000000e+00 0.0000000e+00 
4.1999998e+00 0.0000000e+00 0.0000000e+00 
4.3000002e+00 0.0000000e+00 0.0000000e+00 
4.4000001e+00 0.0000000e+00 0.0000000e+00 
4.5000000e+00 0.0000000e+00 0.0000000e+00 
4.5999999e+00 0.0000000e+00 0.0000000e+00 
4.6999998e+00 0.0000000e+00 0.0000000e+00 
4.8000002e+00 0.0000000e+00 0.0000000e+00 
4.9000001e+00 0.0000000e+00 0.0000000e+00 
5.0000000e+00 0.0000000e+00 0.0000000e+00 
5.0999999e+00 0.0000000e+00 0.0000000e+00 
5.1999998e+00 0.0000000e+00 0.0000000e+00 
5.3000002e+00 0.0000000e+00 0.0000000e+00 
5.4000001e+00 0.0000000e+00 0.0000000e+00 
5.5000000e+00 0.0000000e+00 0.0000000e+00 
5.5999999e+00 0.0000000e+00 0.0000000e+00 
5.6999998e+00 0.0000000e+00 0.0000000e+00 
5.8000002e+00 0.0000000e+00 0.0000000e+00 
5.9000001e+00 0.0000000e+00 0.0000000e+00 
6.0000000e+00 0.0000000e+00 0.0000000e+00 
6.0999999e+00 0.0000000e+00 0.0000000e+00 
6.1999998e+00 0.0000000e+00 0.0000000e+00 
6.3000002e+00 0.0000000e+00 0.0000000e+00 
6.4000001e+00 0.0000000e+00 0.0000000e+00 
6.5000000e+00 0.0000000e+00 0.0000000e+00 
6.5999999e+00 0.0000000e+00 0.0000000e+00 
6.6999998e+00 0.0000000e+00 0.0000000e+00 
6.8000002e+00 0.0000000e+00 0.0000000e+00 
6.9000001e+00 0.0000000e+00 0.0000000e+00 
7.0000000e+00 0.0000000e+00 0.0000000e+00 
7.0999999e+00 0.0000000e+00 0.0000000e+00 
7.1999998e+00 0.0000000e+00 0.0000000e+00 
7.3000002e+00 0.0000000e+00 0.0000000e+00 
7.4000001e+00 0.0000000e+00 0.0000000e+00 
7.5000000e+00 0.0000000e+00 0.0000000e+00 
7.5999999e+00 0.0000000e+00 0.0000000e+00 
7.6999998e+00 0.0000000e+00 0.0000000e+00 
7.8000002e+00 0.0000000e+00 0.0000000e+00 
7.9000001e+00 0.0000000e+00 0.0000000e+00 
8.0000000e+00 0.0000000e+00 0.0000000e+00 
8.1000004e+00 0.0000000e+00 0.0000000e+00 
8.1999998e+00 0.0000000e+00 0.0000000e+00 
8.3000002e+00 0.0000000e+00 0.0000000e+00 
8.3999996e+00 0.0000000e+00 0.0000000e+00 
8.5000000e+00 0.0000000e+00 0.0000000e+00 
8.6000004e+00 0.0000000e+00 0.0000000e+00 
8.6999998e+00 0.0000000e+00 0.0000000e+00 
8.8000002e+00 0.0000000e+00 0.0000000e+00 
8.8999996e+00 0.0000000e+00 0.0000000e+00 
9.0000000e+00 0.0000000e+00 0.0000000e+00 
9.1000004e+00 0.0000000e+00 0.0000000e+00 
9.1999998e+00 0.0000000e+00 0.0000000e+00 
9.3000002e+00 0.0000000e+00 0.0000000e+00 
9.3999996e+00 0.0000000e+00 0.0000000e+00 
9.5000000e+00 0.0000000e+00 0.0000000e+00 
9.6000004e+00 0.0000000e+00 0.0000000e+00 
9.6999998e+00 0.0000000e+00 0.0000000e+00 
9.8000002e+00 0.0000000e+00 0.0000000e+00 
9.8999996e+00 0.0000000e+00 0.0000000e+00 
1.0000000e+01 0.0000000e+00 0.0000000e+00 
1.0100000e+01 0.0000000e+00 0.0000000e+00 
1.0200000e+01 0.0000000e+00 0.0000000e+00 
1.0300000e+01 0.0000000e+00 0.0000000e+00 
1.0400000e+01 0.0000000e+00 0.0000000e+00 
1.0500000e+01 0.0000000e+00 0.0000000e+00 
1.0600000e+01 0.0000000e+00 0.0000000e+00 
1.0700000e+01 0.0000000e+00 0.0000000e+00 
1.0800000e+01 0.0000000e+00 0.0000000e+00 
1.0900000e+01 0.0000000e+00 0.0000000e+00 
1.1000000e+01 0.0000000e+00 0.0000000e+00 
1.1100000e+01 0.0000000e+00 0.0000000e+00 
1.1200000e+01 0.0000000e+00 0.0000000e+00 
1.1300000e+01 0.0000000e+00 0.0000000e+00 
1.1400000e+01 0.0000000e+00 0.0000000e+00 
1.1500000e+01 0.0000000e+00 0.0000000e+00 
1.1600000e+01 0.0000000e+00 0.0000000e+00 
1.1700000e+01 0.0000000e+00 0.0000000e+00 
1.1800000e+01 0.0000000e+00 0.0000000e+00 
1.1900000e+01 0.0000000e+00 0.0000000e+00 
1.2000000e+01 0.0000000e+00 0.0000000e+00 
1.2100000e+01 0.0000000e+00 0.0000000e+00 
1.2200000e+01 0.0000000e+00 0.0000000e+00 
1.2300000e+01 0.0000000e+00 0.0000000e+00 
1.2400000e+01 0.0000000e+00 0.0000000e+00 
1.2500000e+01 0.0000000e+00 0.0000000e+00 
1.2600000e+01 0.0000000e+00 0.0000000e+00 
1.2700000e+01 0.0000000e+00 0.0000000e+00 
1.2800000e+01 0.0000000e+00 0.0000000e+00 
1.2900000e+01 0.0000000e+00 0.0000000e+00 
1.3000000e+01 0.0000000e+00 0.0000000e+00 
1.3100000e+01 0.0000000e+00 0.0000000e+00 
1.3200000e+01 0.0000000e+00 0.0000000e+00 
1.3300000e+01 0.0000000e+00 0.0000000e+00 
1.3400000e+01 0.0000000e+00 0.0000000e+00 
1.3500000e+01 0.0000000e+00 0.0000000e+00 
1.3600000e+01 0.0000000e+00 0.0000000e+00 
1.3700000e+01 0.0000000e+00 0.0000000e+00 
1.3800000e+01 0.0000000e+00 0.0000000e+00 
1.3900000e+01 0.0000000e+00 0.0000000e+00 
1.4000000e+01 0.0000000e+00 0.0000000e+00 
1.4100000e+01 0.0000000e+00 0.0000000e+00 
1.4200000e+01 0.0000000e+00 0.0000000e+00 
1.4300000e+01 0.0000000e+00 0.0000000e+00 
1.4400000e+01 0.0000000e+00 0.0000000e+00 
1.4500000e+01 0.0000000e+00 0.0000000e+00 
1.4600000e+01 0.0000000e+00 0.0000000e+00 
1.4700000e+01 0.0000000e+00 0.0000000e+00 
1.4800000e+01 0.0000000e+00 0.0000000e+00 
1.4900000e+01 0.0000000e+00 0.0000000e+00 
1.5000000e+01 0.0000000e+00 0.0000000e+00 
1.5100000e+01 0.0000000e+00 0.0000000e+00 
1.5200000e+01 0.0000000e+00 0.0000000e+00 
1.5300000e+01 0.0000000e+00 0.0000000e+00 
1.5400000e+01 0.0000000e+00 0.0000000e+00 
1.5500000e+01 0.0000000e+00 0.0000000e+00 
1.5600000e+01 0.0000000e+00 0.0000000e+00 
1.5700000e+01 0.0000000e+00 0.0000000e+00 
1.5800000e+01 0.0000000e+00 0.0000000e+00 
1.5900000e+01 0.0000000e+00 0.0000000e+00 
1.6000000e+01 0.0000000e+00 0.0000000e+00 
1.6100000e+01 0.0000000e+00 0.0000000e+00 
1.6200001e+01 0.0000000e+00 0.0000000e+00 
1.6299999e+01 0.0000000e+00 0.0000000e+00 
1.6400000e+01 0.0000000e+00 0.0000000e+00 
1.6500000e+01 0.0000000e+00 0.0000000e+00 
1.6600000e+01 0.0000000e+00 0.0000000e+00 
1.6700001e+01 0.0000000e+00 0.0000000e+00 
1.6799999e+01 0.0000000e+00 0.0000000e+00 
1.6900000e+01 0.0000000e+00 0.0000000e+00 
1.7000000e+01 0.0000000e+00 0.0000000e+00 
1.7100000e+01 0.0000000e+00 0.0000000e+00 
1.7200001e+01 0.0000000e+00 0.0000000e+00 
1.7299999e+01 0.0000000e+00 0.0000000e+00 
1.7400000e+01 0.0000000e+00 0.0000000e+00 
1.7500000e+01 0.0000000e+00 0.0000000e+00 
1.7600000e+01 0.0000000e+00 0.0000000e+00 
1.7700001e+01 0.0000000e+00 0.0000000e+00 
1.7799999e+01 0.0000000e+00 0.0000000e+00 
1.7900000e+01 0.0000000e+00 0.0000000e+00 
1.8000000e+01 0.0000000e+00 0.0000000e+00 
1.8100000e+01 0.0000000e+00 0.0000000e+00 
1.8200001e+01 0.0000000e+00 0.0000000e+00 
1.8299999e+01 0.0000000e+00 0.0000000e+00 
1.8400000e+01 0.0000000e+00 0.0000000e+00 
1.8500000e+01 0.0000000e+00 0.0000000e+00 
1.8600000e+01 0.0000000e+00 0.0000000e+00 
1.8700001e+01 0.0000000e+00 0.0000000e+00 
1.8799999e+01 0.0000000e+00 0.0000000e+00 
1.8900000e+01 0.0000000e+00 0.0000000e+00 
1.9000000e+01 0.0000000e+00 0.0000000e+00 
1.9100000e+01 0.0000000e+00 0.0000000e+00 
1.9200001e+01 0.0000000e+00 0.0000000e+00 
1.9299999e+01 0.0000000e+00 0.0000000e+00 
1.9400000e+01 0.0000000e+00 0.0000000e+00 
1.9500000e+01 0.0000000e+00 0.0000000e+00 
1.9600000e+01 0.0000000e+00 0.0000000e+00 
1.9700001e+01 0.0000000e+00 0.0000000e+00 
1.9799999e+01 0.0000000e+00 0.0000000e+00 
1.9900000e+01 0.0000000e+00 0.0000000e+00 
2.0000000e+01 0.0000000e+00 0.0000000e+00 
2.0100000e+01 0.0000000e+00 0.0000000e+00 
2.0200001e+01 0.0000000e+00 0.0000000e+00 
2.0299999e+01 0.0000000e+00 0.0000000e+00 
2.0400000e+01 0.0000000e+00 0.0000000e+00 
2.0500000e+01 0.0000000e+00 0.0000000e+00 
2.0600000e+01 0.0000000e+00 0.0000000e+00 
2.0700001e+01 0.0000000e+00 0.0000000e+00 
2.0799999e+01 0.0000000e+00 0.0000000e+00 
2.0900000e+01 0.0000000e+00 0.0000000e+00 
2.1000000e+01 0.0000000e+00 0.0000000e+00 
2.1100000e+01 0.0000000e+00 0.0000000e+00 
2.1200001e+01 0.0000000e+00 0.0000000e+00 
2.1299999e+01 0.0000000e+00 0.0000000e+00 
2.1400000e+01 0.0000000e+00 0.0000000e+00 
2.1500000e+01 0.0000000e+00 0.0000000e+00 
2.1600000e+01 0.0000000e+00 0.0000000e+00 
2.1700001e+01 0.0000000e+00 0.0000000e+00 
2.1799999e+01 0.0000000e+00 0.0000000e+00 
2.1900000e+01 0.0000000e+00 0.0000000e+00 
2.2000000e+01 0.0000000e+00 0.0000000e+00 
2.2100000e+01 0.0000000e+00 0.0000000e+00 
2.2200001e+01 0.0000000e+00 0.0000000e+00 
2.2299999e+01 0.0000000e+00 0.0000000e+00 
2.2400000e+01 0.0000000e+00 0.0000000e+00 
2.2500000e+01 0.0000000e+00 0.0000000e+00 
2.2600000e+01 0.0000000e+00 0.0000000e+00 
2.2700001e+01 0.0000000e+00 0.0000000e+00 
2.2799999e+01 0.0000000e+00 0.0000000e+00 
2.2900000e+01 0.0000000e+00 0.0000000e+00 
2.3000000e+01 0.0000000e+00 0.0000000e+00 
2.3100000e+01 0.0000000e+00 0.0000000e+00 
2.3200001e+01 0.0000000e+00 0.0000000e+00 
2.3299999e+01 0.0000000e+00 0.0000000e+00 
2.3400000e+01 0.0000000e+00 0.0000000e+00 
2.3500000e+01 0.0000000e+00 0.0000000e+00 
2.3600000e+01 0.0000000e+00 0.0000000e+00 
2.3700001e+01 0.0000000e+00 0.0000000e+00 
2.3799999e+01 0.0000000e+00 0.0000000e+00 
2.3900000e+01 0.0000000e+00 0.0000000e+00 
2.4000000e+01 0.0000000e+00 0.0000000e+00 
2.4100000e+01 0.0000000e+00 0.0000000e+00 
2.4200001e+01 0.0000000e+00 0.0000000e+00 
2.4299999e+01 0.0000000e+00 0.0000000e+00 
2.4400000e+01 0.0000000e+00 0.0000000e+00 
2.4500000e+01 0.0000000e+00 0.0000000e+00 
2.4600000e+01 0.0000000e+00 0.0000000e+00 
2.4700001e+01 0.0000000e+00 0.0000000e+00 
2.4799999e+01 0.0000000e+00 0.0000000e+00 
2.4900000e+01 0.0000000e+00 0.0000000e+00 

CELLS 250 750
2 0 2
2 2 3
2 3 4
2 4 5
2 5 6
2 6 7
2 7 8
2 8 9
2 9 10
2 10 11
2 11 12
2 12 13
2 13 14
2 14 15
2 15 16
2 16 17
2 17 18
2 18 19
2 19 20
2 20 21
2 21 22
2 22 23
2 23 24
2 24 25
2 25 26
2 26 27
2 27 28
2 28 29
2 29 30
2 30 31
2 31 32
2 32 33
2 33 34
2 34 35
2 35 36
2 36 37
2 37 38
2 38 39
2 39 40
2 40 41
2 41 42
2 42 43
2 43 44
2 44 45
2 45 46
2 46 47
2 47 48
2 48 49
2 49 50
2 50 51
2 51 52
2 52 53
2 53 54
2 54 55
2 55 56
2 56 57
2 57 58
2 58 59
2 59 60
2 60 61
2 61 62
2 62 63
2 63 64
2 64 65
2 65 66
2 66 67
2 67 68
2 68 69
2 69 70
2 70 71
2 71 72
2 72 73
2 73 74
2 74 75
2 75 76
2 76 77
2 77 78
2 78 79
2 79 80
2 80 81
2 81 82
2 82 83
2 83 84
2 84 85
2 85 86
2 86 87
2 87 88
2 88 89
2 89 90
2 90 91
2 91 92
2 92 93
2 93 94
2 94 95
2 95 96
2 96 97
2 97 98
2 98 99
2 99 100
2 100 101
2 101 102
2 102 103
2 103 104
2 104 105
2 105 106
2 106 107
2 107 108
2 108 109
2 109 110
2 110 111
2 111 112
2 112 113
2 113 114
2 114 115
2 115 116
2 116 117
2 117 118
2 118 119
2 119 120
2 120 121
2 121 122
2 122 123
2 123 124
2 124 125
2 125 126
2 126 127
2 127 128
2 128 129
2 129 130
2 130 131
2 131 132
2 132 133
2 133 134
2 134 135
2 135 136
2 136 137
2 137 138
2 138 139
2 139 140
2 140 141
2 141 142
2 142 143
2 143 144
2 144 145
2 145 146
2 146 147
2 147 148
2 148 149
2 149 150
2 150 151
2 151 152
2 152 153
2 153 154
2 154 155
2 155 156
2 156 157
2 157 158
2 158 159
2 159 160
2 160 161
2 161 162
2 162 163
2 163 164
2 164 165
2 165 166
2 166 167
2 167 168
2 168 169
2 169 170
2 170 171
2 171 172
2 172 173
2 173 174
2 174 175
2 175 176
2 176 177
2 177 178
2 178 179
2 179 180
2 180 181
2 181 182
2 182 183
2 183 184
2 184 185
2 185 186
2 186 187
2 187 188
2 188 189
2 189 190
2 190 191
2 191 192
2 192 193
2 193 194
2 194 195
2 195 196
2 196 197
2 197 198
2 198 199
2 199 200
2 200 201
2 201 202
2 202 203
2 203 204
2 204 205
2 205 206
2 206 207
2 207 208
2 208 209
2 209 210
2 210 211
2 211 212
2 212 213
2 213 214
2 214 215
2 215 216
2 216 217
2 217 218
2 218 219
2 219 220
2 220 221
2 221 222
2 222 223
2 223 224
2 224 225
2 225 226
2 226 227
2 227 228
2 228 229
2 229 230
2 230 231
2 231 232
2 232 233
2 233 234
2 234 235
2 235 236
2 236 237
2 237 238
2 238 239
2 239 240
2 240 241
2 241 242
2 242 243
2 243 244
2 244 245
2 245 246
2 246 247
2 247 248
2 248 249
2 249 250
2 250 1

CELL_TYPES 250
3
3
3
3
3
3
3
3
3
3
3
3
3
3
3
3
3
3
3
3
3
3
3
3
3
3
3
3
3
3
3
3
3
3
3
3
3
3
3
3
3
3
3
3
3
3
3
3
3
3
3
3
3
3
3
3
3
3
3
3
3
3
3
3
3
3
3
3
3
3
3
3
3
3
3
3
3
3
3
3
3
3
3
3
3
3
3
3
3
3
3
3
3
3
3
3
3
3
3
3
3
3
3
3
3
3
3
3
3
3
3
3
3
3
3
3
3
3
3
3
3
3
3
3
3
3
3
3
3
3
3
3
3
3
3
3
3
3
3
3
3
3
3
3
3
3
3
3
3
3
3
3
3
3
3
3
3
3
3
3
3
3
3
3
3
3
3
3
3
3
3
3
3
3
3
3
3
3
3
3
3
3
3
3
3
3
3
3
3
3
3
3
3
3
3
3
3
3
3
3
3
3
3
3
3
3
3
3
3
3
3
3
3
3
3
3
3
3
3
3
3
3
3
3
3
3
3
3
3
3
3
3
3
3
3
3
3
3
3
3
3
3
3
3
3
3
3
3
3
3
POINT_DATA 251
FIELD FieldData 1
DISPLACEMENT 3 251  float
0.0000000e+00 0.0000000e+00 0.0000000e+00 
0.0000000e+00 0.0000000e+00 0.0000000e+00 
0.0000000e+00 -2.9828455e-04 0.0000000e+00 
0.0000000e+00 -5.9649325e-04 0.0000000e+00 
0.0000000e+00 -8.9455035e-04 0.0000000e+00 
0.0000000e+00 -1.1923800e-03 0.0000000e+00 
0.0000000e+00 -1.4899062e-03 0.0000000e+00 
0.0000000e+00 -1.7870533e-03 0.0000000e+00 
0.0000000e+00 -2.0837456e-03 0.0000000e+00 
0.0000000e+00 -2.3799068e-03 0.0000000e+00 
0.0000000e+00 -2.6754616e-03 0.0000000e+00 
0.0000000e+00 -2.9703339e-03 0.0000000e+00 
0.0000000e+00 -3.2644479e-03 0.0000000e+00 
0.0000000e+00 -3.5577279e-03 0.0000000e+00 
0.0000000e+00 -3.8500980e-03 0.0000000e+00 
0.0000000e+00 -4.1414821e-03 0.0000000e+00 
0.0000000e+00 -4.4318051e-03 0.0000000e+00 
0.0000000e+00 -4.7209901e-03 0.0000000e+00 
0.0000000e+00 -5.0089620e-03 0.0000000e+00 
0.0000000e+00 -5.2956450e-03 0.0000000e+00 
0.0000000e+00 -5.5809631e-03 0.0000000e+00 
0.0000000e+00 -5.8648405e-03 0.0000000e+00 
0.0000000e+00 -6.1472012e-03 0.0000000e+00 
0.0000000e+00 -6.4279698e-03 0.0000000e+00 
0.0000000e+00 -6.7070699e-03 0.0000000e+00 
0.0000000e+00 -6.9844262e-03 0.0000000e+00 
0.0000000e+00 -7.2599626e-03 0.0000000e+00 
0.0000000e+00 -7.5336033e-03 0.0000000e+00 
0.0000000e+00 -7.8052725e-03 0.0000000e+00 
0.0000000e+00 -8.0748945e-03 0.0000000e+00 
0.0000000e+00 -8.3423927e-03 0.0000000e+00 
0.0000000e+00 -8.6076921e-03 0.0000000e+00 
0.0000000e+00 -8.8707171e-03 0.0000000e+00 
0.0000000e+00 -9.1313915e-03 0.0000000e+00 
0.0000000e+00 -9.3896389e-03 0.0000000e+00 
0.0000000e+00 -9.6453847e-03 0.0000000e+00 
0.0000000e+00 -9.8985517e-03 0.0000000e+00 
0.0000000e+00 -1.0149065e-02 0.0000000e+00 
0.0000000e+00 -1.0396848e-02 0.0000000e+00 
0.0000000e+00 -1.0641826e-02 0.0000000e+00 
0.0000000e+00 -1.0883923e-02 0.0000000e+00 
0.0000000e+00 -1.1123062e-02 0.0000000e+00 
0.0000000e+00 -1.1359168e-02 0.0000000e+00 
0.0000000e+00 -1.1592166e-02 0.0000000e+00 
0.0000000e+00 -1.1821978e-02 0.0000000e+00 
0.0000000e+00 -1.2048529e-02 0.0000000e+00 
0.0000000e+00 -1.2271745e-02 0.0000000e+00 
0.0000000e+00 -1.2491548e-02 0.0000000e+00 
0.0000000e+00 -1.2707864e-02 0.0000000e+00 
0.0000000e+00 -1.2920615e-02 0.0000000e+00 
0.0000000e+00 -1.3129727e-02 0.0000000e+00 
0.0000000e+00 -1.3335123e-02 0.0000000e+00 
0.0000000e+00 -1.3536727e-02 0.0000000e+00 
0.0000000e+00 -1.3734465e-02 0.0000000e+00 
0.0000000e+00 -1.3928260e-02 0.0000000e+00 
0.0000000e+00 -1.4118064e-02 0.0000000e+00 
0.0000000e+00 -1.4303892e-02 0.0000000e+00 
0.0000000e+00 -1.4485762e-02 0.0000000e+00 
0.0000000e+00 -1.4663696e-02 0.0000000e+00 
0.0000000e+00 -1.4837714e-02 0.0000000e+00 
0.0000000e+00 -1.5007835e-02 0.0000000e+00 
0.0000000e+00 -1.5174082e-02 0.0000000e+00 
0.0000000e+00 -1.5336472e-02 0.0000000e+00 
0.0000000e+00 -1.5495026e-02 0.0000000e+00 
0.0000000e+00 -1.5649768e-02 0.0000000e+00 
0.0000000e+00 -1.5800713e-02 0.0000000e+00 
0.0000000e+00 -1.5947884e-02 0.0000000e+00 
0.0000000e+00 -1.6091302e-02 0.0000000e+00 
0.0000000e+00 -1.6230986e-02 0.0000000e+00 
0.0000000e+00 -1.6366957e-02 0.0000000e+00 
0.0000000e+00 -1.6499234e-02 0.0000000e+00 
0.0000000e+00 -1.6627839e-02 0.0000000e+00 
0.0000000e+00 -1.6752791e-02 0.0000000e+00 
0.0000000e+00 -1.6874110e-02 0.0000000e+00 
0.0000000e+00 -1.6991818e-02 0.0000000e+00 
0.0000000e+00 -1.7105933e-02 0.0000000e+00 
0.0000000e+00 -1.7216479e-02 0.0000000e+00 
0.0000000e+00 -1.7323472e-02 0.0000000e+00 
0.0000000e+00 -1.7426936e-02 0.0000000e+00 
0.0000000e+00 -1.7526887e-02 0.0000000e+00 
0.0000000e+00 -1.7623350e-02 0.0000000e+00 
0.0000000e+00 -1.7716343e-02 0.0000000e+00 
0.0000000e+00 -1.7805886e-02 0.0000000e+00 
0.0000000e+00 -1.7891999e-02 0.0000000e+00 
0.0000000e+00 -1.7974703e-02 0.0000000e+00 
0.0000000e+00 -1.8054018e-02 0.0000000e+00 
0.0000000e+00 -1.8129965e-02 0.0000000e+00 
0.0000000e+00 -1.8202566e-02 0.0000000e+00 
0.0000000e+00 -1.8271836e-02 0.0000000e+00 
0.0000000e+00 -1.8337799e-02 0.0000000e+00 
0.0000000e+00 -1.8400475e-02 0.0000000e+00 
0.0000000e+00 -1.8459886e-02 0.0000000e+00 
0.0000000e+00 -1.8516049e-02 0.0000000e+00 
0.0000000e+00 -1.8568985e-02 0.0000000e+00 
0.0000000e+00 -1.8618714e-02 0.0000000e+00 
0.0000000e+00 -1.8665260e-02 0.0000000e+00 
0.0000000e+00 -1.8708639e-02 0.0000000e+00 
0.0000000e+00 -1.8748872e-02 0.0000000e+00 
0.0000000e+00 -1.8785980e-02 0.0000000e+00 
0.0000000e+00 -1.8819984e-02 0.0000000e+00 
0.0000000e+00 -1.8850904e-02 0.0000000e+00 
0.0000000e+00 -1.8878760e-02 0.0000000e+00 
0.0000000e+00 -1.8903572e-02 0.0000000e+00 
0.0000000e+00 -1.8925359e-02 0.0000000e+00 
0.0000000e+00 -1.8944144e-02 0.0000000e+00 
0.0000000e+00 -1.8959947e-02 0.0000000e+00 
0.0000000e+00 -1.8972786e-02 0.0000000e+00 
0.0000000e+00 -1.8982684e-02 0.0000000e+00 
0.0000000e+00 -1.8989660e-02 0.0000000e+00 
0.0000000e+00 -1.8993733e-02 0.0000000e+00 
0.0000000e+00 -1.8994926e-02 0.0000000e+00 
0.0000000e+00 -1.8993257e-02 0.0000000e+00 
0.0000000e+00 -1.8988745e-02 0.0000000e+00 
0.0000000e+00 -1.8981416e-02 0.0000000e+00 
0.0000000e+00 -1.8971285e-02 0.0000000e+00 
0.0000000e+00 -1.8958375e-02 0.0000000e+00 
0.0000000e+00 -1.8942704e-02 0.0000000e+00 
0.0000000e+00 -1.8924294e-02 0.0000000e+00 
0.0000000e+00 -1.8903164e-02 0.0000000e+00 
0.0000000e+00 -1.8879337e-02 0.0000000e+00 
0.0000000e+00 -1.8852832e-02 0.0000000e+00 
0.0000000e+00 -1.8823666e-02 0.0000000e+00 
0.0000000e+00 -1.8791864e-02 0.0000000e+00 
0.0000000e+00 -1.8757444e-02 0.0000000e+00 
0.0000000e+00 -1.8720428e-02 0.0000000e+00 
0.0000000e+00 -1.8680833e-02 0.0000000e+00 
0.0000000e+00 -1.8638682e-02 0.0000000e+00 
0.0000000e+00 -1.8593993e-02 0.0000000e+00 
0.0000000e+00 -1.8546790e-02 0.0000000e+00 
0.0000000e+00 -1.8497091e-02 0.0000000e+00 
0.0000000e+00 -1.8444914e-02 0.0000000e+00 
0.0000000e+00 -1.8390283e-02 0.0000000e+00 
0.0000000e+00 -1.8333219e-02 0.0000000e+00 
0.0000000e+00 -1.8273737e-02 0.0000000e+00 
0.0000000e+00 -1.8211862e-02 0.0000000e+00 
0.0000000e+00 -1.8147614e-02 0.0000000e+00 
0.0000000e+00 -1.8081011e-02 0.0000000e+00 
0.0000000e+00 -1.8012075e-02 0.0000000e+00 
0.0000000e+00 -1.7940825e-02 0.0000000e+00 
0.0000000e+00 -1.7867282e-02 0.0000000e+00 
0.0000000e+00 -1.7791467e-02 0.0000000e+00 
0.0000000e+00 -1.7713400e-02 0.0000000e+00 
0.0000000e+00 -1.7633099e-02 0.0000000e+00 
0.0000000e+00 -1.7550588e-02 0.0000000e+00 
0.0000000e+00 -1.7465884e-02 0.0000000e+00 
0.0000000e+00 -1.7379010e-02 0.0000000e+00 
0.0000000e+00 -1.7289985e-02 0.0000000e+00 
0.0000000e+00 -1.7198829e-02 0.0000000e+00 
0.0000000e+00 -1.7105563e-02 0.0000000e+00 
0.0000000e+00 -1.7010206e-02 0.0000000e+00 
0.0000000e+00 -1.6912779e-02 0.0000000e+00 
0.0000000e+00 -1.6813304e-02 0.0000000e+00 
0.0000000e+00 -1.6711799e-02 0.0000000e+00 
0.0000000e+00 -1.6608285e-02 0.0000000e+00 
0.0000000e+00 -1.6502783e-02 0.0000000e+00 
0.0000000e+00 -1.6395312e-02 0.0000000e+00 
0.0000000e+00 -1.6285894e-02 0.0000000e+00 
0.0000000e+00 -1.6174547e-02 0.0000000e+00 
0.0000000e+00 -1.6061293e-02 0.0000000e+00 
0.0000000e+00 -1.5946154e-02 0.0000000e+00 
0.0000000e+00 -1.5829144e-02 0.0000000e+00 
0.0000000e+00 -1.5710291e-02 0.0000000e+00 
0.0000000e+00 -1.5589610e-02 0.0000000e+00 
0.0000000e+00 -1.5467123e-02 0.0000000e+00 
0.0000000e+00 -1.5342851e-02 0.0000000e+00 
0.0000000e+00 -1.5216813e-02 0.0000000e+00 
0.0000000e+00 -1.5089030e-02 0.0000000e+00 
0.0000000e+00 -1.4959523e-02 0.0000000e+00 
0.0000000e+00 -1.4828311e-02 0.0000000e+00 
0.0000000e+00 -1.4695415e-02 0.0000000e+00 
0.0000000e+00 -1.4560855e-02 0.0000000e+00 
0.0000000e+00 -1.4424651e-02 0.0000000e+00 
0.0000000e+00 -1.4286824e-02 0.0000000e+00 
0.0000000e+00 -1.4147393e-02 0.0000000e+00 
0.0000000e+00 -1.4006380e-02 0.0000000e+00 
0.0000000e+00 -1.3863805e-02 0.0000000e+00 
0.0000000e+00 -1.3719687e-02 0.0000000e+00 
0.0000000e+00 -1.3574048e-02 0.0000000e+00 
0.0000000e+00 -1.3426906e-02 0.0000000e+00 
0.0000000e+00 -1.3278284e-02 0.0000000e+00 
0.0000000e+00 -1.3128201e-02 0.0000000e+00 
0.0000000e+00 -1.2976676e-02 0.0000000e+00 
0.0000000e+00 -1.2823732e-02 0.0000000e+00 
0.0000000e+00 -1.2669387e-02 0.0000000e+00 
0.0000000e+00 -1.2513663e-02 0.0000000e+00 
0.0000000e+00 -1.2356578e-02 0.0000000e+00 
0.0000000e+00 -1.2198155e-02 0.0000000e+00 
0.0000000e+00 -1.2038413e-02 0.0000000e+00 
0.0000000e+00 -1.1877372e-02 0.0000000e+00 
0.0000000e+00 -1.1715053e-02 0.0000000e+00 
0.0000000e+00 -1.1551475e-02 0.0000000e+00 
0.0000000e+00 -1.1386659e-02 0.0000000e+00 
0.0000000e+00 -1.1220627e-02 0.0000000e+00 
0.0000000e+00 -1.1053396e-02 0.0000000e+00 
0.0000000e+00 -1.0884989e-02 0.0000000e+00 
0.0000000e+00 -1.0715426e-02 0.0000000e+00 
0.0000000e+00 -1.0544726e-02 0.0000000e+00 
0.0000000e+00 -1.0372910e-02 0.0000000e+00 
0.0000000e+00 -1.0199999e-02 0.0000000e+00 
0.0000000e+00 -1.0026011e-02 0.0000000e+00 
0.0000000e+00 -9.8509686e-03 0.0000000e+00 
0.0000000e+00 -9.6748909e-03 0.0000000e+00 
0.0000000e+00 -9.4977990e-03 0.0000000e+00 
0.0000000e+00 -9.3197133e-03 0.0000000e+00 
0.0000000e+00 -9.1406526e-03 0.0000000e+00 
0.0000000e+00 -8.9606391e-03 0.0000000e+00 
0.0000000e+00 -8.7796915e-03 0.0000000e+00 
0.0000000e+00 -8.5978312e-03 0.0000000e+00 
0.0000000e+00 -8.4150778e-03 0.0000000e+00 
0.0000000e+00 -8.2314517e-03 0.0000000e+00 
0.0000000e+00 -8.0469744e-03 0.0000000e+00 
0.0000000e+00 -7.8616636e-03 0.0000000e+00 
0.0000000e+00 -7.6755420e-03 0.0000000e+00 
0.0000000e+00 -7.4886293e-03 0.0000000e+00 
0.0000000e+00 -7.3009450e-03 0.0000000e+00 
0.0000000e+00 -7.1125100e-03 0.0000000e+00 
0.0000000e+00 -6.9233445e-03 0.0000000e+00 
0.0000000e+00 -6.7334687e-03 0.0000000e+00 
0.0000000e+00 -6.5429029e-03 0.0000000e+00 
0.0000000e+00 -6.3516675e-03 0.0000000e+00 
0.0000000e+00 -6.1597829e-03 0.0000000e+00 
0.0000000e+00 -5.9672692e-03 0.0000000e+00 
0.0000000e+00 -5.7741469e-03 0.0000000e+00 
0.0000000e+00 -5.5804360e-03 0.0000000e+00 
0.0000000e+00 -5.3861570e-03 0.0000000e+00 
0.0000000e+00 -5.1913299e-03 0.0000000e+00 
0.0000000e+00 -4.9959756e-03 0.0000000e+00 
0.0000000e+00 -4.8001138e-03 0.0000000e+00 
0.0000000e+00 -4.6037650e-03 0.0000000e+00 
0.0000000e+00 -4.4069495e-03 0.0000000e+00 
0.0000000e+00 -4.2096875e-03 0.0000000e+00 
0.0000000e+00 -4.0119994e-03 0.0000000e+00 
0.0000000e+00 -3.8139054e-03 0.0000000e+00 
0.0000000e+00 -3.6154259e-03 0.0000000e+00 
0.0000000e+00 -3.4165811e-03 0.0000000e+00 
0.0000000e+00 -3.2173914e-03 0.0000000e+00 
0.0000000e+00 -3.0178772e-03 0.0000000e+00 
0.0000000e+00 -2.8180585e-03 0.0000000e+00 
0.0000000e+00 -2.6179557e-03 0.0000000e+00 
0.0000000e+00 -2.4175891e-03 0.0000000e+00 
0.0000000e+00 -2.2169789e-03 0.0000000e+00 
0.0000000e+00 -2.0161455e-03 0.0000000e+00 
0.0000000e+00 -1.8151093e-03 0.0000000e+00 
0.0000000e+00 -1.6138904e-03 0.0000000e+00 
0.0000000e+00 -1.4125092e-03 0.0000000e+00 
0.0000000e+00 -1.2109861e-03 0.0000000e+00 
0.0000000e+00 -1.0093410e-03 0.0000000e+00 
0.0000000e+00 -8.0759457e-04 0.0000000e+00 
0.0000000e+00 -6.0576695e-04 0.0000000e+00 
0.0000000e+00 -4.0387845e-04 0.0000000e+00 
0.0000000e+00 -2.0194937e-04 0.0000000e+00 
CELL_DATA 250
FIELD FieldData 0
