# vtk DataFile Version 4.0
vtk output
ASCII
DATASET UNSTRUCTURED_GRID
POINTS 251 float
0.0000000e+00 0.0000000e+00 0.0000000e+00 
2.5000000e+01 0.0000000e+00 0.0000000e+00 
1.0000000e-01 0.0000000e+00 0.0000000e+00 
2.0000000e-01 0.0000000e+00 0.0000000e+00 
3.0000001e-01 0.0000000e+00 0.0000000e+00 
4.0000001e-01 0.0000000e+00 0.0000000e+00 
5.0000000e-01 0.0000000e+00 0.0000000e+00 
6.0000002e-01 0.0000000e+00 0.0000000e+00 
6.9999999e-01 0.0000000e+00 0.0000000e+00 
8.0000001e-01 0.0000000e+00 0.0000000e+00 
8.9999998e-01 0.0000000e+00 0.0000000e+00 
1.0000000e+00 0.0000000e+00 0.0000000e+00 
1.1000000e+00 0.0000000e+00 0.0000000e+00 
1.2000000e+00 0.0000000e+00 0.0000000e+00 
1.3000000e+00 0.0000000e+00 0.0000000e+00 
1.4000000e+00 0.0000000e+00 0.0000000e+00 
1.5000000e+00 0.0000000e+00 0.0000000e+00 
1.6000000e+00 0.0000000e+00 0.0000000e+00 
1.7000000e+00 0.0000000e+00 0.0000000e+00 
1.8000000e+00 0.0000000e+00 0.0000000e+00 
1.9000000e+00 0.0000000e+00 0.0000000e+00 
2.0000000e+00 0.0000000e+00 0.0000000e+00 
2.0999999e+00 0.0000000e+00 0.0000000e+00 
2.2000000e+00 0.0000000e+00 0.0000000e+00 
2.3000000e+00 0.0000000e+00 0.0000000e+00 
2.4000001e+00 0.0000000e+00 0.0000000e+00 
2.5000000e+00 0.0000000e+00 0.0000000e+00 
2.5999999e+00 0.0000000e+00 0.0000000e+00 
2.7000000e+00 0.0000000e+00 0.0000000e+00 
2.8000000e+00 0.0000000e+00 0.0000000e+00 
2.9000001e+00 0.0000000e+00 0.0000000e+00 
3.0000000e+00 0.0000000e+00 0.0000000e+00 
3.0999999e+00 0.0000000e+00 0.0000000e+00 
3.2000000e+00 0.0000000e+00 0.0000000e+00 
3.3000000e+00 0.0000000e+00 0.0000000e+00 
3.4000001e+00 0.0000000e+00 0.0000000e+00 
3.5000000e+00 0.0000000e+00 0.0000000e+00 
3.5999999e+00 0.0000000e+00 0.0000000e+00 
3.7000000e+00 0.0000000e+00 0.0000000e+00 
3.8000000e+00 0.0000000e+00 0.0000000e+00 
3.9000001e+00 0.0000000e+00 0.0000000e+00 
4.0000000e+00 0.0000000e+00 0.0000000e+00 
4.0999999e+00 0.0000000e+00 0.0000000e+00 
4.1999998e+00 0.0000000e+00 0.0000000e+00 
4.3000002e+00 0.0000000e+00 0.0000000e+00 
4.4000001e+00 0.0000000e+00 0.0000000e+00 
4.5000000e+00 0.0000000e+00 0.0000000e+00 
4.5999999e+00 0.0000000e+00 0.0000000e+00 
4.6999998e+00 0.0000000e+00 0.0000000e+00 
4.8000002e+00 0.0000000e+00 0.0000000e+00 
4.9000001e+00 0.0000000e+00 0.0000000e+00 
5.0000000e+00 0.0000000e+00 0.0000000e+00 
5.0999999e+00 0.0000000e+00 0.0000000e+00 
5.1999998e+00 0.0000000e+00 0.0000000e+00 
5.3000002e+00 0.0000000e+00 0.0000000e+00 
5.4000001e+00 0.0000000e+00 0.0000000e+00 
5.5000000e+00 0.0000000e+00 0.0000000e+00 
5.5999999e+00 0.0000000e+00 0.0000000e+00 
5.6999998e+00 0.0000000e+00 0.0000000e+00 
5.8000002e+00 0.0000000e+00 0.0000000e+00 
5.9000001e+00 0.0000000e+00 0.0000000e+00 
6.0000000e+00 0.0000000e+00 0.0000000e+00 
6.0999999e+00 0.0000000e+00 0.0000000e+00 
6.1999998e+00 0.0000000e+00 0.0000000e+00 
6.3000002e+00 0.0000000e+00 0.0000000e+00 
6.4000001e+00 0.0000000e+00 0.0000000e+00 
6.5000000e+00 0.0000000e+00 0.0000000e+00 
6.5999999e+00 0.0000000e+00 0.0000000e+00 
6.6999998e+00 0.0000000e+00 0.0000000e+00 
6.8000002e+00 0.0000000e+00 0.0000000e+00 
6.9000001e+00 0.0000000e+00 0.0000000e+00 
7.0000000e+00 0.0000000e+00 0.0000000e+00 
7.0999999e+00 0.0000000e+00 0.0000000e+00 
7.1999998e+00 0.0000000e+00 0.0000000e+00 
7.3000002e+00 0.0000000e+00 0.0000000e+00 
7.4000001e+00 0.0000000e+00 0.0000000e+00 
7.5000000e+00 0.0000000e+00 0.0000000e+00 
7.5999999e+00 0.0000000e+00 0.0000000e+00 
7.6999998e+00 0.0000000e+00 0.0000000e+00 
7.8000002e+00 0.0000000e+00 0.0000000e+00 
7.9000001e+00 0.0000000e+00 0.0000000e+00 
8.0000000e+00 0.0000000e+00 0.0000000e+00 
8.1000004e+00 0.0000000e+00 0.0000000e+00 
8.1999998e+00 0.0000000e+00 0.0000000e+00 
8.3000002e+00 0.0000000e+00 0.0000000e+00 
8.3999996e+00 0.0000000e+00 0.0000000e+00 
8.5000000e+00 0.0000000e+00 0.0000000e+00 
8.6000004e+00 0.0000000e+00 0.0000000e+00 
8.6999998e+00 0.0000000e+00 0.0000000e+00 
8.8000002e+00 0.0000000e+00 0.0000000e+00 
8.8999996e+00 0.0000000e+00 0.0000000e+00 
9.0000000e+00 0.0000000e+00 0.0000000e+00 
9.1000004e+00 0.0000000e+00 0.0000000e+00 
9.1999998e+00 0.0000000e+00 0.0000000e+00 
9.3000002e+00 0.0000000e+00 0.0000000e+00 
9.3999996e+00 0.0000000e+00 0.0000000e+00 
9.5000000e+00 0.0000000e+00 0.0000000e+00 
9.6000004e+00 0.0000000e+00 0.0000000e+00 
9.6999998e+00 0.0000000e+00 0.0000000e+00 
9.8000002e+00 0.0000000e+00 0.0000000e+00 
9.8999996e+00 0.0000000e+00 0.0000000e+00 
1.0000000e+01 0.0000000e+00 0.0000000e+00 
1.0100000e+01 0.0000000e+00 0.0000000e+00 
1.0200000e+01 0.0000000e+00 0.0000000e+00 
1.0300000e+01 0.0000000e+00 0.0000000e+00 
1.0400000e+01 0.0000000e+00 0.0000000e+00 
1.0500000e+01 0.0000000e+00 0.0000000e+00 
1.0600000e+01 0.0000000e+00 0.0000000e+00 
1.0700000e+01 0.0000000e+00 0.0000000e+00 
1.0800000e+01 0.0000000e+00 0.0000000e+00 
1.0900000e+01 0.0000000e+00 0.0000000e+00 
1.1000000e+01 0.0000000e+00 0.0000000e+00 
1.1100000e+01 0.0000000e+00 0.0000000e+00 
1.1200000e+01 0.0000000e+00 0.0000000e+00 
1.1300000e+01 0.0000000e+00 0.0000000e+00 
1.1400000e+01 0.0000000e+00 0.0000000e+00 
1.1500000e+01 0.0000000e+00 0.0000000e+00 
1.1600000e+01 0.0000000e+00 0.0000000e+00 
1.1700000e+01 0.0000000e+00 0.0000000e+00 
1.1800000e+01 0.0000000e+00 0.0000000e+00 
1.1900000e+01 0.0000000e+00 0.0000000e+00 
1.2000000e+01 0.0000000e+00 0.0000000e+00 
1.2100000e+01 0.0000000e+00 0.0000000e+00 
1.2200000e+01 0.0000000e+00 0.0000000e+00 
1.2300000e+01 0.0000000e+00 0.0000000e+00 
1.2400000e+01 0.0000000e+00 0.0000000e+00 
1.2500000e+01 0.0000000e+00 0.0000000e+00 
1.2600000e+01 0.0000000e+00 0.0000000e+00 
1.2700000e+01 0.0000000e+00 0.0000000e+00 
1.2800000e+01 0.0000000e+00 0.0000000e+00 
1.2900000e+01 0.0000000e+00 0.0000000e+00 
1.3000000e+01 0.0000000e+00 0.0000000e+00 
1.3100000e+01 0.0000000e+00 0.0000000e+00 
1.3200000e+01 0.0000000e+00 0.0000000e+00 
1.3300000e+01 0.0000000e+00 0.0000000e+00 
1.3400000e+01 0.0000000e+00 0.0000000e+00 
1.3500000e+01 0.0000000e+00 0.0000000e+00 
1.3600000e+01 0.0000000e+00 0.0000000e+00 
1.3700000e+01 0.0000000e+00 0.0000000e+00 
1.3800000e+01 0.0000000e+00 0.0000000e+00 
1.3900000e+01 0.0000000e+00 0.0000000e+00 
1.4000000e+01 0.0000000e+00 0.0000000e+00 
1.4100000e+01 0.0000000e+00 0.0000000e+00 
1.4200000e+01 0.0000000e+00 0.0000000e+00 
1.4300000e+01 0.0000000e+00 0.0000000e+00 
1.4400000e+01 0.0000000e+00 0.0000000e+00 
1.4500000e+01 0.0000000e+00 0.0000000e+00 
1.4600000e+01 0.0000000e+00 0.0000000e+00 
1.4700000e+01 0.0000000e+00 0.0000000e+00 
1.4800000e+01 0.0000000e+00 0.0000000e+00 
1.4900000e+01 0.0000000e+00 0.0000000e+00 
1.5000000e+01 0.0000000e+00 0.0000000e+00 
1.5100000e+01 0.0000000e+00 0.0000000e+00 
1.5200000e+01 0.0000000e+00 0.0000000e+00 
1.5300000e+01 0.0000000e+00 0.0000000e+00 
1.5400000e+01 0.0000000e+00 0.0000000e+00 
1.5500000e+01 0.0000000e+00 0.0000000e+00 
1.5600000e+01 0.0000000e+00 0.0000000e+00 
1.5700000e+01 0.0000000e+00 0.0000000e+00 
1.5800000e+01 0.0000000e+00 0.0000000e+00 
1.5900000e+01 0.0000000e+00 0.0000000e+00 
1.6000000e+01 0.0000000e+00 0.0000000e+00 
1.6100000e+01 0.0000000e+00 0.0000000e+00 
1.6200001e+01 0.0000000e+00 0.0000000e+00 
1.6299999e+01 0.0000000e+00 0.0000000e+00 
1.6400000e+01 0.0000000e+00 0.0000000e+00 
1.6500000e+01 0.0000000e+00 0.0000000e+00 
1.6600000e+01 0.0000000e+00 0.0000000e+00 
1.6700001e+01 0.0000000e+00 0.0000000e+00 
1.6799999e+01 0.0000000e+00 0.0000000e+00 
1.6900000e+01 0.0000000e+00 0.0000000e+00 
1.7000000e+01 0.0000000e+00 0.0000000e+00 
1.7100000e+01 0.0000000e+00 0.0000000e+00 
1.7200001e+01 0.0000000e+00 0.0000000e+00 
1.7299999e+01 0.0000000e+00 0.0000000e+00 
1.7400000e+01 0.0000000e+00 0.0000000e+00 
1.7500000e+01 0.0000000e+00 0.0000000e+00 
1.7600000e+01 0.0000000e+00 0.0000000e+00 
1.7700001e+01 0.0000000e+00 0.0000000e+00 
1.7799999e+01 0.0000000e+00 0.0000000e+00 
1.7900000e+01 0.0000000e+00 0.0000000e+00 
1.8000000e+01 0.0000000e+00 0.0000000e+00 
1.8100000e+01 0.0000000e+00 0.0000000e+00 
1.8200001e+01 0.0000000e+00 0.0000000e+00 
1.8299999e+01 0.0000000e+00 0.0000000e+00 
1.8400000e+01 0.0000000e+00 0.0000000e+00 
1.8500000e+01 0.0000000e+00 0.0000000e+00 
1.8600000e+01 0.0000000e+00 0.0000000e+00 
1.8700001e+01 0.0000000e+00 0.0000000e+00 
1.8799999e+01 0.0000000e+00 0.0000000e+00 
1.8900000e+01 0.0000000e+00 0.0000000e+00 
1.9000000e+01 0.0000000e+00 0.0000000e+00 
1.9100000e+01 0.0000000e+00 0.0000000e+00 
1.9200001e+01 0.0000000e+00 0.0000000e+00 
1.9299999e+01 0.0000000e+00 0.0000000e+00 
1.9400000e+01 0.0000000e+00 0.0000000e+00 
1.9500000e+01 0.0000000e+00 0.0000000e+00 
1.9600000e+01 0.0000000e+00 0.0000000e+00 
1.9700001e+01 0.0000000e+00 0.0000000e+00 
1.9799999e+01 0.0000000e+00 0.0000000e+00 
1.9900000e+01 0.0000000e+00 0.0000000e+00 
2.0000000e+01 0.0000000e+00 0.0000000e+00 
2.0100000e+01 0.0000000e+00 0.0000000e+00 
2.0200001e+01 0.0000000e+00 0.0000000e+00 
2.0299999e+01 0.0000000e+00 0.0000000e+00 
2.0400000e+01 0.0000000e+00 0.0000000e+00 
2.0500000e+01 0.0000000e+00 0.0000000e+00 
2.0600000e+01 0.0000000e+00 0.0000000e+00 
2.0700001e+01 0.0000000e+00 0.0000000e+00 
2.0799999e+01 0.0000000e+00 0.0000000e+00 
2.0900000e+01 0.0000000e+00 0.0000000e+00 
2.1000000e+01 0.0000000e+00 0.0000000e+00 
2.1100000e+01 0.0000000e+00 0.0000000e+00 
2.1200001e+01 0.0000000e+00 0.0000000e+00 
2.1299999e+01 0.0000000e+00 0.0000000e+00 
2.1400000e+01 0.0000000e+00 0.0000000e+00 
2.1500000e+01 0.0000000e+00 0.0000000e+00 
2.1600000e+01 0.0000000e+00 0.0000000e+00 
2.1700001e+01 0.0000000e+00 0.0000000e+00 
2.1799999e+01 0.0000000e+00 0.0000000e+00 
2.1900000e+01 0.0000000e+00 0.0000000e+00 
2.2000000e+01 0.0000000e+00 0.0000000e+00 
2.2100000e+01 0.0000000e+00 0.0000000e+00 
2.2200001e+01 0.0000000e+00 0.0000000e+00 
2.2299999e+01 0.0000000e+00 0.0000000e+00 
2.2400000e+01 0.0000000e+00 0.0000000e+00 
2.2500000e+01 0.0000000e+00 0.0000000e+00 
2.2600000e+01 0.0000000e+00 0.0000000e+00 
2.2700001e+01 0.0000000e+00 0.0000000e+00 
2.2799999e+01 0.0000000e+00 0.0000000e+00 
2.2900000e+01 0.0000000e+00 0.0000000e+00 
2.3000000e+01 0.0000000e+00 0.0000000e+00 
2.3100000e+01 0.0000000e+00 0.0000000e+00 
2.3200001e+01 0.0000000e+00 0.0000000e+00 
2.3299999e+01 0.0000000e+00 0.0000000e+00 
2.3400000e+01 0.0000000e+00 0.0000000e+00 
2.3500000e+01 0.0000000e+00 0.0000000e+00 
2.3600000e+01 0.0000000e+00 0.0000000e+00 
2.3700001e+01 0.0000000e+00 0.0000000e+00 
2.3799999e+01 0.0000000e+00 0.0000000e+00 
2.3900000e+01 0.0000000e+00 0.0000000e+00 
2.4000000e+01 0.0000000e+00 0.0000000e+00 
2.4100000e+01 0.0000000e+00 0.0000000e+00 
2.4200001e+01 0.0000000e+00 0.0000000e+00 
2.4299999e+01 0.0000000e+00 0.0000000e+00 
2.4400000e+01 0.0000000e+00 0.0000000e+00 
2.4500000e+01 0.0000000e+00 0.0000000e+00 
2.4600000e+01 0.0000000e+00 0.0000000e+00 
2.4700001e+01 0.0000000e+00 0.0000000e+00 
2.4799999e+01 0.0000000e+00 0.0000000e+00 
2.4900000e+01 0.0000000e+00 0.0000000e+00 

CELLS 250 750
2 0 2
2 2 3
2 3 4
2 4 5
2 5 6
2 6 7
2 7 8
2 8 9
2 9 10
2 10 11
2 11 12
2 12 13
2 13 14
2 14 15
2 15 16
2 16 17
2 17 18
2 18 19
2 19 20
2 20 21
2 21 22
2 22 23
2 23 24
2 24 25
2 25 26
2 26 27
2 27 28
2 28 29
2 29 30
2 30 31
2 31 32
2 32 33
2 33 34
2 34 35
2 35 36
2 36 37
2 37 38
2 38 39
2 39 40
2 40 41
2 41 42
2 42 43
2 43 44
2 44 45
2 45 46
2 46 47
2 47 48
2 48 49
2 49 50
2 50 51
2 51 52
2 52 53
2 53 54
2 54 55
2 55 56
2 56 57
2 57 58
2 58 59
2 59 60
2 60 61
2 61 62
2 62 63
2 63 64
2 64 65
2 65 66
2 66 67
2 67 68
2 68 69
2 69 70
2 70 71
2 71 72
2 72 73
2 73 74
2 74 75
2 75 76
2 76 77
2 77 78
2 78 79
2 79 80
2 80 81
2 81 82
2 82 83
2 83 84
2 84 85
2 85 86
2 86 87
2 87 88
2 88 89
2 89 90
2 90 91
2 91 92
2 92 93
2 93 94
2 94 95
2 95 96
2 96 97
2 97 98
2 98 99
2 99 100
2 100 101
2 101 102
2 102 103
2 103 104
2 104 105
2 105 106
2 106 107
2 107 108
2 108 109
2 109 110
2 110 111
2 111 112
2 112 113
2 113 114
2 114 115
2 115 116
2 116 117
2 117 118
2 118 119
2 119 120
2 120 121
2 121 122
2 122 123
2 123 124
2 124 125
2 125 126
2 126 127
2 127 128
2 128 129
2 129 130
2 130 131
2 131 132
2 132 133
2 133 134
2 134 135
2 135 136
2 136 137
2 137 138
2 138 139
2 139 140
2 140 141
2 141 142
2 142 143
2 143 144
2 144 145
2 145 146
2 146 147
2 147 148
2 148 149
2 149 150
2 150 151
2 151 152
2 152 153
2 153 154
2 154 155
2 155 156
2 156 157
2 157 158
2 158 159
2 159 160
2 160 161
2 161 162
2 162 163
2 163 164
2 164 165
2 165 166
2 166 167
2 167 168
2 168 169
2 169 170
2 170 171
2 171 172
2 172 173
2 173 174
2 174 175
2 175 176
2 176 177
2 177 178
2 178 179
2 179 180
2 180 181
2 181 182
2 182 183
2 183 184
2 184 185
2 185 186
2 186 187
2 187 188
2 188 189
2 189 190
2 190 191
2 191 192
2 192 193
2 193 194
2 194 195
2 195 196
2 196 197
2 197 198
2 198 199
2 199 200
2 200 201
2 201 202
2 202 203
2 203 204
2 204 205
2 205 206
2 206 207
2 207 208
2 208 209
2 209 210
2 210 211
2 211 212
2 212 213
2 213 214
2 214 215
2 215 216
2 216 217
2 217 218
2 218 219
2 219 220
2 220 221
2 221 222
2 222 223
2 223 224
2 224 225
2 225 226
2 226 227
2 227 228
2 228 229
2 229 230
2 230 231
2 231 232
2 232 233
2 233 234
2 234 235
2 235 236
2 236 237
2 237 238
2 238 239
2 239 240
2 240 241
2 241 242
2 242 243
2 243 244
2 244 245
2 245 246
2 246 247
2 247 248
2 248 249
2 249 250
2 250 1

CELL_TYPES 250
3
3
3
3
3
3
3
3
3
3
3
3
3
3
3
3
3
3
3
3
3
3
3
3
3
3
3
3
3
3
3
3
3
3
3
3
3
3
3
3
3
3
3
3
3
3
3
3
3
3
3
3
3
3
3
3
3
3
3
3
3
3
3
3
3
3
3
3
3
3
3
3
3
3
3
3
3
3
3
3
3
3
3
3
3
3
3
3
3
3
3
3
3
3
3
3
3
3
3
3
3
3
3
3
3
3
3
3
3
3
3
3
3
3
3
3
3
3
3
3
3
3
3
3
3
3
3
3
3
3
3
3
3
3
3
3
3
3
3
3
3
3
3
3
3
3
3
3
3
3
3
3
3
3
3
3
3
3
3
3
3
3
3
3
3
3
3
3
3
3
3
3
3
3
3
3
3
3
3
3
3
3
3
3
3
3
3
3
3
3
3
3
3
3
3
3
3
3
3
3
3
3
3
3
3
3
3
3
3
3
3
3
3
3
3
3
3
3
3
3
3
3
3
3
3
3
3
3
3
3
3
3
3
3
3
3
3
3
3
3
3
3
3
3
3
3
3
3
3
3
POINT_DATA 251
FIELD FieldData 1
DISPLACEMENT 3 251  float
0.0000000e+00 0.0000000e+00 0.0000000e+00 
0.0000000e+00 0.0000000e+00 0.0000000e+00 
0.0000000e+00 -3.7377223e-04 0.0000000e+00 
0.0000000e+00 -7.4749312e-04 0.0000000e+00 
0.0000000e+00 -1.1211114e-03 0.0000000e+00 
0.0000000e+00 -1.4945758e-03 0.0000000e+00 
0.0000000e+00 -1.8678348e-03 0.0000000e+00 
0.0000000e+00 -2.2408373e-03 0.0000000e+00 
0.0000000e+00 -2.6135319e-03 0.0000000e+00 
0.0000000e+00 -2.9858670e-03 0.0000000e+00 
0.0000000e+00 -3.3577918e-03 0.0000000e+00 
0.0000000e+00 -3.7292545e-03 0.0000000e+00 
0.0000000e+00 -4.1002040e-03 0.0000000e+00 
0.0000000e+00 -4.4705891e-03 0.0000000e+00 
0.0000000e+00 -4.8403582e-03 0.0000000e+00 
0.0000000e+00 -5.2094595e-03 0.0000000e+00 
0.0000000e+00 -5.5778427e-03 0.0000000e+00 
0.0000000e+00 -5.9454553e-03 0.0000000e+00 
0.0000000e+00 -6.3122469e-03 0.0000000e+00 
0.0000000e+00 -6.6781659e-03 0.0000000e+00 
0.0000000e+00 -7.0431600e-03 0.0000000e+00 
0.0000000e+00 -7.4071791e-03 0.0000000e+00 
0.0000000e+00 -7.7701709e-03 0.0000000e+00 
0.0000000e+00 -8.1320843e-03 0.0000000e+00 
0.0000000e+00 -8.4928675e-03 0.0000000e+00 
0.0000000e+00 -8.8524697e-03 0.0000000e+00 
0.0000000e+00 -9.2108389e-03 0.0000000e+00 
0.0000000e+00 -9.5679238e-03 0.0000000e+00 
0.0000000e+00 -9.9236732e-03 0.0000000e+00 
0.0000000e+00 -1.0278036e-02 0.0000000e+00 
0.0000000e+00 -1.0630959e-02 0.0000000e+00 
0.0000000e+00 -1.0982392e-02 0.0000000e+00 
0.0000000e+00 -1.1332284e-02 0.0000000e+00 
0.0000000e+00 -1.1680582e-02 0.0000000e+00 
0.0000000e+00 -1.2027235e-02 0.0000000e+00 
0.0000000e+00 -1.2372191e-02 0.0000000e+00 
0.0000000e+00 -1.2715400e-02 0.0000000e+00 
0.0000000e+00 -1.3056809e-02 0.0000000e+00 
0.0000000e+00 -1.3396366e-02 0.0000000e+00 
0.0000000e+00 -1.3734021e-02 0.0000000e+00 
0.0000000e+00 -1.4069721e-02 0.0000000e+00 
0.0000000e+00 -1.4403415e-02 0.0000000e+00 
0.0000000e+00 -1.4735050e-02 0.0000000e+00 
0.0000000e+00 -1.5064578e-02 0.0000000e+00 
0.0000000e+00 -1.5391942e-02 0.0000000e+00 
0.0000000e+00 -1.5717093e-02 0.0000000e+00 
0.0000000e+00 -1.6039981e-02 0.0000000e+00 
0.0000000e+00 -1.6360551e-02 0.0000000e+00 
0.0000000e+00 -1.6678752e-02 0.0000000e+00 
0.0000000e+00 -1.6994534e-02 0.0000000e+00 
0.0000000e+00 -1.7307844e-02 0.0000000e+00 
0.0000000e+00 -1.7618628e-02 0.0000000e+00 
0.0000000e+00 -1.7926838e-02 0.0000000e+00 
0.0000000e+00 -1.8232420e-02 0.0000000e+00 
0.0000000e+00 -1.8535322e-02 0.0000000e+00 
0.0000000e+00 -1.8835492e-02 0.0000000e+00 
0.0000000e+00 -1.9132879e-02 0.0000000e+00 
0.0000000e+00 -1.9427430e-02 0.0000000e+00 
0.0000000e+00 -1.9719092e-02 0.0000000e+00 
0.0000000e+00 -2.0007815e-02 0.0000000e+00 
0.0000000e+00 -2.0293549e-02 0.0000000e+00 
0.0000000e+00 -2.0576235e-02 0.0000000e+00 
0.0000000e+00 -2.0855827e-02 0.0000000e+00 
0.0000000e+00 -2.1132272e-02 0.0000000e+00 
0.0000000e+00 -2.1405514e-02 0.0000000e+00 
0.0000000e+00 -2.1675507e-02 0.0000000e+00 
0.0000000e+00 -2.1942193e-02 0.0000000e+00 
0.0000000e+00 -2.2205520e-02 0.0000000e+00 
0.0000000e+00 -2.2465441e-02 0.0000000e+00 
0.0000000e+00 -2.2721900e-02 0.0000000e+00 
0.0000000e+00 -2.2974843e-02 0.0000000e+00 
0.0000000e+00 -2.3224222e-02 0.0000000e+00 
0.0000000e+00 -2.3469981e-02 0.0000000e+00 
0.0000000e+00 -2.3712069e-02 0.0000000e+00 
0.0000000e+00 -2.3950433e-02 0.0000000e+00 
0.0000000e+00 -2.4185022e-02 0.0000000e+00 
0.0000000e+00 -2.4415782e-02 0.0000000e+00 
0.0000000e+00 -2.4642659e-02 0.0000000e+00 
0.0000000e+00 -2.4865605e-02 0.0000000e+00 
0.0000000e+00 -2.5084563e-02 0.0000000e+00 
0.0000000e+00 -2.5299480e-02 0.0000000e+00 
0.0000000e+00 -2.5510307e-02 0.0000000e+00 
0.0000000e+00 -2.5716990e-02 0.0000000e+00 
0.0000000e+00 -2.5919475e-02 0.0000000e+00 
0.0000000e+00 -2.6117709e-02 0.0000000e+00 
0.0000000e+00 -2.6311640e-02 0.0000000e+00 
0.0000000e+00 -2.6501214e-02 0.0000000e+00 
0.0000000e+00 -2.6686380e-02 0.0000000e+00 
0.0000000e+00 -2.6867084e-02 0.0000000e+00 
0.0000000e+00 -2.7043274e-02 0.0000000e+00 
0.0000000e+00 -2.7214894e-02 0.0000000e+00 
0.0000000e+00 -2.7381893e-02 0.0000000e+00 
0.0000000e+00 -2.7544219e-02 0.0000000e+00 
0.0000000e+00 -2.7701816e-02 0.0000000e+00 
0.0000000e+00 -2.7854633e-02 0.0000000e+00 
0.0000000e+00 -2.8002616e-02 0.0000000e+00 
0.0000000e+00 -2.8145712e-02 0.0000000e+00 
0.0000000e+00 -2.8283866e-02 0.0000000e+00 
0.0000000e+00 -2.8417027e-02 0.0000000e+00 
0.0000000e+00 -2.8545141e-02 0.0000000e+00 
0.0000000e+00 -2.8668152e-02 0.0000000e+00 
0.0000000e+00 -2.8786011e-02 0.0000000e+00 
0.0000000e+00 -2.8898660e-02 0.0000000e+00 
0.0000000e+00 -2.9006042e-02 0.0000000e+00 
0.0000000e+00 -2.9108100e-02 0.0000000e+00 
0.0000000e+00 -2.9204778e-02 0.0000000e+00 
0.0000000e+00 -2.9296029e-02 0.0000000e+00 
0.0000000e+00 -2.9381808e-02 0.0000000e+00 
0.0000000e+00 -2.9462056e-02 0.0000000e+00 
0.0000000e+00 -2.9536713e-02 0.0000000e+00 
0.0000000e+00 -2.9605715e-02 0.0000000e+00 
0.0000000e+00 -2.9669011e-02 0.0000000e+00 
0.0000000e+00 -2.9726567e-02 0.0000000e+00 
0.0000000e+00 -2.9778352e-02 0.0000000e+00 
0.0000000e+00 -2.9824391e-02 0.0000000e+00 
0.0000000e+00 -2.9864727e-02 0.0000000e+00 
0.0000000e+00 -2.9899400e-02 0.0000000e+00 
0.0000000e+00 -2.9928453e-02 0.0000000e+00 
0.0000000e+00 -2.9951930e-02 0.0000000e+00 
0.0000000e+00 -2.9969871e-02 0.0000000e+00 
0.0000000e+00 -2.9982317e-02 0.0000000e+00 
0.0000000e+00 -2.9989313e-02 0.0000000e+00 
0.0000000e+00 -2.9990898e-02 0.0000000e+00 
0.0000000e+00 -2.9987115e-02 0.0000000e+00 
0.0000000e+00 -2.9978009e-02 0.0000000e+00 
0.0000000e+00 -2.9963616e-02 0.0000000e+00 
0.0000000e+00 -2.9943982e-02 0.0000000e+00 
0.0000000e+00 -2.9919149e-02 0.0000000e+00 
0.0000000e+00 -2.9889157e-02 0.0000000e+00 
0.0000000e+00 -2.9854048e-02 0.0000000e+00 
0.0000000e+00 -2.9813863e-02 0.0000000e+00 
0.0000000e+00 -2.9768646e-02 0.0000000e+00 
0.0000000e+00 -2.9718438e-02 0.0000000e+00 
0.0000000e+00 -2.9663278e-02 0.0000000e+00 
0.0000000e+00 -2.9603211e-02 0.0000000e+00 
0.0000000e+00 -2.9538278e-02 0.0000000e+00 
0.0000000e+00 -2.9468520e-02 0.0000000e+00 
0.0000000e+00 -2.9393977e-02 0.0000000e+00 
0.0000000e+00 -2.9314691e-02 0.0000000e+00 
0.0000000e+00 -2.9230706e-02 0.0000000e+00 
0.0000000e+00 -2.9142063e-02 0.0000000e+00 
0.0000000e+00 -2.9048800e-02 0.0000000e+00 
0.0000000e+00 -2.8950961e-02 0.0000000e+00 
0.0000000e+00 -2.8848588e-02 0.0000000e+00 
0.0000000e+00 -2.8741723e-02 0.0000000e+00 
0.0000000e+00 -2.8630404e-02 0.0000000e+00 
0.0000000e+00 -2.8514674e-02 0.0000000e+00 
0.0000000e+00 -2.8394574e-02 0.0000000e+00 
0.0000000e+00 -2.8270146e-02 0.0000000e+00 
0.0000000e+00 -2.8141432e-02 0.0000000e+00 
0.0000000e+00 -2.8008470e-02 0.0000000e+00 
0.0000000e+00 -2.7871305e-02 0.0000000e+00 
0.0000000e+00 -2.7729975e-02 0.0000000e+00 
0.0000000e+00 -2.7584525e-02 0.0000000e+00 
0.0000000e+00 -2.7434992e-02 0.0000000e+00 
0.0000000e+00 -2.7281420e-02 0.0000000e+00 
0.0000000e+00 -2.7123848e-02 0.0000000e+00 
0.0000000e+00 -2.6962319e-02 0.0000000e+00 
0.0000000e+00 -2.6796874e-02 0.0000000e+00 
0.0000000e+00 -2.6627554e-02 0.0000000e+00 
0.0000000e+00 -2.6454398e-02 0.0000000e+00 
0.0000000e+00 -2.6277449e-02 0.0000000e+00 
0.0000000e+00 -2.6096748e-02 0.0000000e+00 
0.0000000e+00 -2.5912337e-02 0.0000000e+00 
0.0000000e+00 -2.5724255e-02 0.0000000e+00 
0.0000000e+00 -2.5532542e-02 0.0000000e+00 
0.0000000e+00 -2.5337243e-02 0.0000000e+00 
0.0000000e+00 -2.5138397e-02 0.0000000e+00 
0.0000000e+00 -2.4936045e-02 0.0000000e+00 
0.0000000e+00 -2.4730228e-02 0.0000000e+00 
0.0000000e+00 -2.4520986e-02 0.0000000e+00 
0.0000000e+00 -2.4308361e-02 0.0000000e+00 
0.0000000e+00 -2.4092397e-02 0.0000000e+00 
0.0000000e+00 -2.3873130e-02 0.0000000e+00 
0.0000000e+00 -2.3650603e-02 0.0000000e+00 
0.0000000e+00 -2.3424858e-02 0.0000000e+00 
0.0000000e+00 -2.3195935e-02 0.0000000e+00 
0.0000000e+00 -2.2963878e-02 0.0000000e+00 
0.0000000e+00 -2.2728723e-02 0.0000000e+00 
0.0000000e+00 -2.2490514e-02 0.0000000e+00 
0.0000000e+00 -2.2249293e-02 0.0000000e+00 
0.0000000e+00 -2.2005100e-02 0.0000000e+00 
0.0000000e+00 -2.1757973e-02 0.0000000e+00 
0.0000000e+00 -2.1507960e-02 0.0000000e+00 
0.0000000e+00 -2.1255096e-02 0.0000000e+00 
0.0000000e+00 -2.0999426e-02 0.0000000e+00 
0.0000000e+00 -2.0740990e-02 0.0000000e+00 
0.0000000e+00 -2.0479826e-02 0.0000000e+00 
0.0000000e+00 -2.0215981e-02 0.0000000e+00 
0.0000000e+00 -1.9949492e-02 0.0000000e+00 
0.0000000e+00 -1.9680403e-02 0.0000000e+00 
0.0000000e+00 -1.9408753e-02 0.0000000e+00 
0.0000000e+00 -1.9134585e-02 0.0000000e+00 
0.0000000e+00 -1.8857939e-02 0.0000000e+00 
0.0000000e+00 -1.8578857e-02 0.0000000e+00 
0.0000000e+00 -1.8297380e-02 0.0000000e+00 
0.0000000e+00 -1.8013550e-02 0.0000000e+00 
0.0000000e+00 -1.7727409e-02 0.0000000e+00 
0.0000000e+00 -1.7438995e-02 0.0000000e+00 
0.0000000e+00 -1.7148353e-02 0.0000000e+00 
0.0000000e+00 -1.6855525e-02 0.0000000e+00 
0.0000000e+00 -1.6560549e-02 0.0000000e+00 
0.0000000e+00 -1.6263468e-02 0.0000000e+00 
0.0000000e+00 -1.5964326e-02 0.0000000e+00 
0.0000000e+00 -1.5663162e-02 0.0000000e+00 
0.0000000e+00 -1.5360018e-02 0.0000000e+00 
0.0000000e+00 -1.5054937e-02 0.0000000e+00 
0.0000000e+00 -1.4747958e-02 0.0000000e+00 
0.0000000e+00 -1.4439124e-02 0.0000000e+00 
0.0000000e+00 -1.4128477e-02 0.0000000e+00 
0.0000000e+00 -1.3816060e-02 0.0000000e+00 
0.0000000e+00 -1.3501912e-02 0.0000000e+00 
0.0000000e+00 -1.3186077e-02 0.0000000e+00 
0.0000000e+00 -1.2868595e-02 0.0000000e+00 
0.0000000e+00 -1.2549510e-02 0.0000000e+00 
0.0000000e+00 -1.2228862e-02 0.0000000e+00 
0.0000000e+00 -1.1906694e-02 0.0000000e+00 
0.0000000e+00 -1.1583047e-02 0.0000000e+00 
0.0000000e+00 -1.1257963e-02 0.0000000e+00 
0.0000000e+00 -1.0931485e-02 0.0000000e+00 
0.0000000e+00 -1.0603655e-02 0.0000000e+00 
0.0000000e+00 -1.0274514e-02 0.0000000e+00 
0.0000000e+00 -9.9441037e-03 0.0000000e+00 
0.0000000e+00 -9.6124671e-03 0.0000000e+00 
0.0000000e+00 -9.2796460e-03 0.0000000e+00 
0.0000000e+00 -8.9456830e-03 0.0000000e+00 
0.0000000e+00 -8.6106192e-03 0.0000000e+00 
0.0000000e+00 -8.2744975e-03 0.0000000e+00 
0.0000000e+00 -7.9373606e-03 0.0000000e+00 
0.0000000e+00 -7.5992490e-03 0.0000000e+00 
0.0000000e+00 -7.2602057e-03 0.0000000e+00 
0.0000000e+00 -6.9202734e-03 0.0000000e+00 
0.0000000e+00 -6.5794941e-03 0.0000000e+00 
0.0000000e+00 -6.2379097e-03 0.0000000e+00 
0.0000000e+00 -5.8955625e-03 0.0000000e+00 
0.0000000e+00 -5.5524954e-03 0.0000000e+00 
0.0000000e+00 -5.2087498e-03 0.0000000e+00 
0.0000000e+00 -4.8643691e-03 0.0000000e+00 
0.0000000e+00 -4.5193941e-03 0.0000000e+00 
0.0000000e+00 -4.1738688e-03 0.0000000e+00 
0.0000000e+00 -3.8278343e-03 0.0000000e+00 
0.0000000e+00 -3.4813336e-03 0.0000000e+00 
0.0000000e+00 -3.1344090e-03 0.0000000e+00 
0.0000000e+00 -2.7871025e-03 0.0000000e+00 
0.0000000e+00 -2.4394570e-03 0.0000000e+00 
0.0000000e+00 -2.0915144e-03 0.0000000e+00 
0.0000000e+00 -1.7433175e-03 0.0000000e+00 
0.0000000e+00 -1.3949085e-03 0.0000000e+00 
0.0000000e+00 -1.0463299e-03 0.0000000e+00 
0.0000000e+00 -6.9762388e-04 0.0000000e+00 
0.0000000e+00 -3.4883316e-04 0.0000000e+00 
CELL_DATA 250
FIELD FieldData 0
