# vtk DataFile Version 4.0
vtk output
ASCII
DATASET UNSTRUCTURED_GRID
POINTS 251 float
0.0000000e+00 0.0000000e+00 0.0000000e+00 
2.5000000e+01 0.0000000e+00 0.0000000e+00 
1.0000000e-01 0.0000000e+00 0.0000000e+00 
2.0000000e-01 0.0000000e+00 0.0000000e+00 
3.0000001e-01 0.0000000e+00 0.0000000e+00 
4.0000001e-01 0.0000000e+00 0.0000000e+00 
5.0000000e-01 0.0000000e+00 0.0000000e+00 
6.0000002e-01 0.0000000e+00 0.0000000e+00 
6.9999999e-01 0.0000000e+00 0.0000000e+00 
8.0000001e-01 0.0000000e+00 0.0000000e+00 
8.9999998e-01 0.0000000e+00 0.0000000e+00 
1.0000000e+00 0.0000000e+00 0.0000000e+00 
1.1000000e+00 0.0000000e+00 0.0000000e+00 
1.2000000e+00 0.0000000e+00 0.0000000e+00 
1.3000000e+00 0.0000000e+00 0.0000000e+00 
1.4000000e+00 0.0000000e+00 0.0000000e+00 
1.5000000e+00 0.0000000e+00 0.0000000e+00 
1.6000000e+00 0.0000000e+00 0.0000000e+00 
1.7000000e+00 0.0000000e+00 0.0000000e+00 
1.8000000e+00 0.0000000e+00 0.0000000e+00 
1.9000000e+00 0.0000000e+00 0.0000000e+00 
2.0000000e+00 0.0000000e+00 0.0000000e+00 
2.0999999e+00 0.0000000e+00 0.0000000e+00 
2.2000000e+00 0.0000000e+00 0.0000000e+00 
2.3000000e+00 0.0000000e+00 0.0000000e+00 
2.4000001e+00 0.0000000e+00 0.0000000e+00 
2.5000000e+00 0.0000000e+00 0.0000000e+00 
2.5999999e+00 0.0000000e+00 0.0000000e+00 
2.7000000e+00 0.0000000e+00 0.0000000e+00 
2.8000000e+00 0.0000000e+00 0.0000000e+00 
2.9000001e+00 0.0000000e+00 0.0000000e+00 
3.0000000e+00 0.0000000e+00 0.0000000e+00 
3.0999999e+00 0.0000000e+00 0.0000000e+00 
3.2000000e+00 0.0000000e+00 0.0000000e+00 
3.3000000e+00 0.0000000e+00 0.0000000e+00 
3.4000001e+00 0.0000000e+00 0.0000000e+00 
3.5000000e+00 0.0000000e+00 0.0000000e+00 
3.5999999e+00 0.0000000e+00 0.0000000e+00 
3.7000000e+00 0.0000000e+00 0.0000000e+00 
3.8000000e+00 0.0000000e+00 0.0000000e+00 
3.9000001e+00 0.0000000e+00 0.0000000e+00 
4.0000000e+00 0.0000000e+00 0.0000000e+00 
4.0999999e+00 0.0000000e+00 0.0000000e+00 
4.1999998e+00 0.0000000e+00 0.0000000e+00 
4.3000002e+00 0.0000000e+00 0.0000000e+00 
4.4000001e+00 0.0000000e+00 0.0000000e+00 
4.5000000e+00 0.0000000e+00 0.0000000e+00 
4.5999999e+00 0.0000000e+00 0.0000000e+00 
4.6999998e+00 0.0000000e+00 0.0000000e+00 
4.8000002e+00 0.0000000e+00 0.0000000e+00 
4.9000001e+00 0.0000000e+00 0.0000000e+00 
5.0000000e+00 0.0000000e+00 0.0000000e+00 
5.0999999e+00 0.0000000e+00 0.0000000e+00 
5.1999998e+00 0.0000000e+00 0.0000000e+00 
5.3000002e+00 0.0000000e+00 0.0000000e+00 
5.4000001e+00 0.0000000e+00 0.0000000e+00 
5.5000000e+00 0.0000000e+00 0.0000000e+00 
5.5999999e+00 0.0000000e+00 0.0000000e+00 
5.6999998e+00 0.0000000e+00 0.0000000e+00 
5.8000002e+00 0.0000000e+00 0.0000000e+00 
5.9000001e+00 0.0000000e+00 0.0000000e+00 
6.0000000e+00 0.0000000e+00 0.0000000e+00 
6.0999999e+00 0.0000000e+00 0.0000000e+00 
6.1999998e+00 0.0000000e+00 0.0000000e+00 
6.3000002e+00 0.0000000e+00 0.0000000e+00 
6.4000001e+00 0.0000000e+00 0.0000000e+00 
6.5000000e+00 0.0000000e+00 0.0000000e+00 
6.5999999e+00 0.0000000e+00 0.0000000e+00 
6.6999998e+00 0.0000000e+00 0.0000000e+00 
6.8000002e+00 0.0000000e+00 0.0000000e+00 
6.9000001e+00 0.0000000e+00 0.0000000e+00 
7.0000000e+00 0.0000000e+00 0.0000000e+00 
7.0999999e+00 0.0000000e+00 0.0000000e+00 
7.1999998e+00 0.0000000e+00 0.0000000e+00 
7.3000002e+00 0.0000000e+00 0.0000000e+00 
7.4000001e+00 0.0000000e+00 0.0000000e+00 
7.5000000e+00 0.0000000e+00 0.0000000e+00 
7.5999999e+00 0.0000000e+00 0.0000000e+00 
7.6999998e+00 0.0000000e+00 0.0000000e+00 
7.8000002e+00 0.0000000e+00 0.0000000e+00 
7.9000001e+00 0.0000000e+00 0.0000000e+00 
8.0000000e+00 0.0000000e+00 0.0000000e+00 
8.1000004e+00 0.0000000e+00 0.0000000e+00 
8.1999998e+00 0.0000000e+00 0.0000000e+00 
8.3000002e+00 0.0000000e+00 0.0000000e+00 
8.3999996e+00 0.0000000e+00 0.0000000e+00 
8.5000000e+00 0.0000000e+00 0.0000000e+00 
8.6000004e+00 0.0000000e+00 0.0000000e+00 
8.6999998e+00 0.0000000e+00 0.0000000e+00 
8.8000002e+00 0.0000000e+00 0.0000000e+00 
8.8999996e+00 0.0000000e+00 0.0000000e+00 
9.0000000e+00 0.0000000e+00 0.0000000e+00 
9.1000004e+00 0.0000000e+00 0.0000000e+00 
9.1999998e+00 0.0000000e+00 0.0000000e+00 
9.3000002e+00 0.0000000e+00 0.0000000e+00 
9.3999996e+00 0.0000000e+00 0.0000000e+00 
9.5000000e+00 0.0000000e+00 0.0000000e+00 
9.6000004e+00 0.0000000e+00 0.0000000e+00 
9.6999998e+00 0.0000000e+00 0.0000000e+00 
9.8000002e+00 0.0000000e+00 0.0000000e+00 
9.8999996e+00 0.0000000e+00 0.0000000e+00 
1.0000000e+01 0.0000000e+00 0.0000000e+00 
1.0100000e+01 0.0000000e+00 0.0000000e+00 
1.0200000e+01 0.0000000e+00 0.0000000e+00 
1.0300000e+01 0.0000000e+00 0.0000000e+00 
1.0400000e+01 0.0000000e+00 0.0000000e+00 
1.0500000e+01 0.0000000e+00 0.0000000e+00 
1.0600000e+01 0.0000000e+00 0.0000000e+00 
1.0700000e+01 0.0000000e+00 0.0000000e+00 
1.0800000e+01 0.0000000e+00 0.0000000e+00 
1.0900000e+01 0.0000000e+00 0.0000000e+00 
1.1000000e+01 0.0000000e+00 0.0000000e+00 
1.1100000e+01 0.0000000e+00 0.0000000e+00 
1.1200000e+01 0.0000000e+00 0.0000000e+00 
1.1300000e+01 0.0000000e+00 0.0000000e+00 
1.1400000e+01 0.0000000e+00 0.0000000e+00 
1.1500000e+01 0.0000000e+00 0.0000000e+00 
1.1600000e+01 0.0000000e+00 0.0000000e+00 
1.1700000e+01 0.0000000e+00 0.0000000e+00 
1.1800000e+01 0.0000000e+00 0.0000000e+00 
1.1900000e+01 0.0000000e+00 0.0000000e+00 
1.2000000e+01 0.0000000e+00 0.0000000e+00 
1.2100000e+01 0.0000000e+00 0.0000000e+00 
1.2200000e+01 0.0000000e+00 0.0000000e+00 
1.2300000e+01 0.0000000e+00 0.0000000e+00 
1.2400000e+01 0.0000000e+00 0.0000000e+00 
1.2500000e+01 0.0000000e+00 0.0000000e+00 
1.2600000e+01 0.0000000e+00 0.0000000e+00 
1.2700000e+01 0.0000000e+00 0.0000000e+00 
1.2800000e+01 0.0000000e+00 0.0000000e+00 
1.2900000e+01 0.0000000e+00 0.0000000e+00 
1.3000000e+01 0.0000000e+00 0.0000000e+00 
1.3100000e+01 0.0000000e+00 0.0000000e+00 
1.3200000e+01 0.0000000e+00 0.0000000e+00 
1.3300000e+01 0.0000000e+00 0.0000000e+00 
1.3400000e+01 0.0000000e+00 0.0000000e+00 
1.3500000e+01 0.0000000e+00 0.0000000e+00 
1.3600000e+01 0.0000000e+00 0.0000000e+00 
1.3700000e+01 0.0000000e+00 0.0000000e+00 
1.3800000e+01 0.0000000e+00 0.0000000e+00 
1.3900000e+01 0.0000000e+00 0.0000000e+00 
1.4000000e+01 0.0000000e+00 0.0000000e+00 
1.4100000e+01 0.0000000e+00 0.0000000e+00 
1.4200000e+01 0.0000000e+00 0.0000000e+00 
1.4300000e+01 0.0000000e+00 0.0000000e+00 
1.4400000e+01 0.0000000e+00 0.0000000e+00 
1.4500000e+01 0.0000000e+00 0.0000000e+00 
1.4600000e+01 0.0000000e+00 0.0000000e+00 
1.4700000e+01 0.0000000e+00 0.0000000e+00 
1.4800000e+01 0.0000000e+00 0.0000000e+00 
1.4900000e+01 0.0000000e+00 0.0000000e+00 
1.5000000e+01 0.0000000e+00 0.0000000e+00 
1.5100000e+01 0.0000000e+00 0.0000000e+00 
1.5200000e+01 0.0000000e+00 0.0000000e+00 
1.5300000e+01 0.0000000e+00 0.0000000e+00 
1.5400000e+01 0.0000000e+00 0.0000000e+00 
1.5500000e+01 0.0000000e+00 0.0000000e+00 
1.5600000e+01 0.0000000e+00 0.0000000e+00 
1.5700000e+01 0.0000000e+00 0.0000000e+00 
1.5800000e+01 0.0000000e+00 0.0000000e+00 
1.5900000e+01 0.0000000e+00 0.0000000e+00 
1.6000000e+01 0.0000000e+00 0.0000000e+00 
1.6100000e+01 0.0000000e+00 0.0000000e+00 
1.6200001e+01 0.0000000e+00 0.0000000e+00 
1.6299999e+01 0.0000000e+00 0.0000000e+00 
1.6400000e+01 0.0000000e+00 0.0000000e+00 
1.6500000e+01 0.0000000e+00 0.0000000e+00 
1.6600000e+01 0.0000000e+00 0.0000000e+00 
1.6700001e+01 0.0000000e+00 0.0000000e+00 
1.6799999e+01 0.0000000e+00 0.0000000e+00 
1.6900000e+01 0.0000000e+00 0.0000000e+00 
1.7000000e+01 0.0000000e+00 0.0000000e+00 
1.7100000e+01 0.0000000e+00 0.0000000e+00 
1.7200001e+01 0.0000000e+00 0.0000000e+00 
1.7299999e+01 0.0000000e+00 0.0000000e+00 
1.7400000e+01 0.0000000e+00 0.0000000e+00 
1.7500000e+01 0.0000000e+00 0.0000000e+00 
1.7600000e+01 0.0000000e+00 0.0000000e+00 
1.7700001e+01 0.0000000e+00 0.0000000e+00 
1.7799999e+01 0.0000000e+00 0.0000000e+00 
1.7900000e+01 0.0000000e+00 0.0000000e+00 
1.8000000e+01 0.0000000e+00 0.0000000e+00 
1.8100000e+01 0.0000000e+00 0.0000000e+00 
1.8200001e+01 0.0000000e+00 0.0000000e+00 
1.8299999e+01 0.0000000e+00 0.0000000e+00 
1.8400000e+01 0.0000000e+00 0.0000000e+00 
1.8500000e+01 0.0000000e+00 0.0000000e+00 
1.8600000e+01 0.0000000e+00 0.0000000e+00 
1.8700001e+01 0.0000000e+00 0.0000000e+00 
1.8799999e+01 0.0000000e+00 0.0000000e+00 
1.8900000e+01 0.0000000e+00 0.0000000e+00 
1.9000000e+01 0.0000000e+00 0.0000000e+00 
1.9100000e+01 0.0000000e+00 0.0000000e+00 
1.9200001e+01 0.0000000e+00 0.0000000e+00 
1.9299999e+01 0.0000000e+00 0.0000000e+00 
1.9400000e+01 0.0000000e+00 0.0000000e+00 
1.9500000e+01 0.0000000e+00 0.0000000e+00 
1.9600000e+01 0.0000000e+00 0.0000000e+00 
1.9700001e+01 0.0000000e+00 0.0000000e+00 
1.9799999e+01 0.0000000e+00 0.0000000e+00 
1.9900000e+01 0.0000000e+00 0.0000000e+00 
2.0000000e+01 0.0000000e+00 0.0000000e+00 
2.0100000e+01 0.0000000e+00 0.0000000e+00 
2.0200001e+01 0.0000000e+00 0.0000000e+00 
2.0299999e+01 0.0000000e+00 0.0000000e+00 
2.0400000e+01 0.0000000e+00 0.0000000e+00 
2.0500000e+01 0.0000000e+00 0.0000000e+00 
2.0600000e+01 0.0000000e+00 0.0000000e+00 
2.0700001e+01 0.0000000e+00 0.0000000e+00 
2.0799999e+01 0.0000000e+00 0.0000000e+00 
2.0900000e+01 0.0000000e+00 0.0000000e+00 
2.1000000e+01 0.0000000e+00 0.0000000e+00 
2.1100000e+01 0.0000000e+00 0.0000000e+00 
2.1200001e+01 0.0000000e+00 0.0000000e+00 
2.1299999e+01 0.0000000e+00 0.0000000e+00 
2.1400000e+01 0.0000000e+00 0.0000000e+00 
2.1500000e+01 0.0000000e+00 0.0000000e+00 
2.1600000e+01 0.0000000e+00 0.0000000e+00 
2.1700001e+01 0.0000000e+00 0.0000000e+00 
2.1799999e+01 0.0000000e+00 0.0000000e+00 
2.1900000e+01 0.0000000e+00 0.0000000e+00 
2.2000000e+01 0.0000000e+00 0.0000000e+00 
2.2100000e+01 0.0000000e+00 0.0000000e+00 
2.2200001e+01 0.0000000e+00 0.0000000e+00 
2.2299999e+01 0.0000000e+00 0.0000000e+00 
2.2400000e+01 0.0000000e+00 0.0000000e+00 
2.2500000e+01 0.0000000e+00 0.0000000e+00 
2.2600000e+01 0.0000000e+00 0.0000000e+00 
2.2700001e+01 0.0000000e+00 0.0000000e+00 
2.2799999e+01 0.0000000e+00 0.0000000e+00 
2.2900000e+01 0.0000000e+00 0.0000000e+00 
2.3000000e+01 0.0000000e+00 0.0000000e+00 
2.3100000e+01 0.0000000e+00 0.0000000e+00 
2.3200001e+01 0.0000000e+00 0.0000000e+00 
2.3299999e+01 0.0000000e+00 0.0000000e+00 
2.3400000e+01 0.0000000e+00 0.0000000e+00 
2.3500000e+01 0.0000000e+00 0.0000000e+00 
2.3600000e+01 0.0000000e+00 0.0000000e+00 
2.3700001e+01 0.0000000e+00 0.0000000e+00 
2.3799999e+01 0.0000000e+00 0.0000000e+00 
2.3900000e+01 0.0000000e+00 0.0000000e+00 
2.4000000e+01 0.0000000e+00 0.0000000e+00 
2.4100000e+01 0.0000000e+00 0.0000000e+00 
2.4200001e+01 0.0000000e+00 0.0000000e+00 
2.4299999e+01 0.0000000e+00 0.0000000e+00 
2.4400000e+01 0.0000000e+00 0.0000000e+00 
2.4500000e+01 0.0000000e+00 0.0000000e+00 
2.4600000e+01 0.0000000e+00 0.0000000e+00 
2.4700001e+01 0.0000000e+00 0.0000000e+00 
2.4799999e+01 0.0000000e+00 0.0000000e+00 
2.4900000e+01 0.0000000e+00 0.0000000e+00 

CELLS 250 750
2 0 2
2 2 3
2 3 4
2 4 5
2 5 6
2 6 7
2 7 8
2 8 9
2 9 10
2 10 11
2 11 12
2 12 13
2 13 14
2 14 15
2 15 16
2 16 17
2 17 18
2 18 19
2 19 20
2 20 21
2 21 22
2 22 23
2 23 24
2 24 25
2 25 26
2 26 27
2 27 28
2 28 29
2 29 30
2 30 31
2 31 32
2 32 33
2 33 34
2 34 35
2 35 36
2 36 37
2 37 38
2 38 39
2 39 40
2 40 41
2 41 42
2 42 43
2 43 44
2 44 45
2 45 46
2 46 47
2 47 48
2 48 49
2 49 50
2 50 51
2 51 52
2 52 53
2 53 54
2 54 55
2 55 56
2 56 57
2 57 58
2 58 59
2 59 60
2 60 61
2 61 62
2 62 63
2 63 64
2 64 65
2 65 66
2 66 67
2 67 68
2 68 69
2 69 70
2 70 71
2 71 72
2 72 73
2 73 74
2 74 75
2 75 76
2 76 77
2 77 78
2 78 79
2 79 80
2 80 81
2 81 82
2 82 83
2 83 84
2 84 85
2 85 86
2 86 87
2 87 88
2 88 89
2 89 90
2 90 91
2 91 92
2 92 93
2 93 94
2 94 95
2 95 96
2 96 97
2 97 98
2 98 99
2 99 100
2 100 101
2 101 102
2 102 103
2 103 104
2 104 105
2 105 106
2 106 107
2 107 108
2 108 109
2 109 110
2 110 111
2 111 112
2 112 113
2 113 114
2 114 115
2 115 116
2 116 117
2 117 118
2 118 119
2 119 120
2 120 121
2 121 122
2 122 123
2 123 124
2 124 125
2 125 126
2 126 127
2 127 128
2 128 129
2 129 130
2 130 131
2 131 132
2 132 133
2 133 134
2 134 135
2 135 136
2 136 137
2 137 138
2 138 139
2 139 140
2 140 141
2 141 142
2 142 143
2 143 144
2 144 145
2 145 146
2 146 147
2 147 148
2 148 149
2 149 150
2 150 151
2 151 152
2 152 153
2 153 154
2 154 155
2 155 156
2 156 157
2 157 158
2 158 159
2 159 160
2 160 161
2 161 162
2 162 163
2 163 164
2 164 165
2 165 166
2 166 167
2 167 168
2 168 169
2 169 170
2 170 171
2 171 172
2 172 173
2 173 174
2 174 175
2 175 176
2 176 177
2 177 178
2 178 179
2 179 180
2 180 181
2 181 182
2 182 183
2 183 184
2 184 185
2 185 186
2 186 187
2 187 188
2 188 189
2 189 190
2 190 191
2 191 192
2 192 193
2 193 194
2 194 195
2 195 196
2 196 197
2 197 198
2 198 199
2 199 200
2 200 201
2 201 202
2 202 203
2 203 204
2 204 205
2 205 206
2 206 207
2 207 208
2 208 209
2 209 210
2 210 211
2 211 212
2 212 213
2 213 214
2 214 215
2 215 216
2 216 217
2 217 218
2 218 219
2 219 220
2 220 221
2 221 222
2 222 223
2 223 224
2 224 225
2 225 226
2 226 227
2 227 228
2 228 229
2 229 230
2 230 231
2 231 232
2 232 233
2 233 234
2 234 235
2 235 236
2 236 237
2 237 238
2 238 239
2 239 240
2 240 241
2 241 242
2 242 243
2 243 244
2 244 245
2 245 246
2 246 247
2 247 248
2 248 249
2 249 250
2 250 1

CELL_TYPES 250
3
3
3
3
3
3
3
3
3
3
3
3
3
3
3
3
3
3
3
3
3
3
3
3
3
3
3
3
3
3
3
3
3
3
3
3
3
3
3
3
3
3
3
3
3
3
3
3
3
3
3
3
3
3
3
3
3
3
3
3
3
3
3
3
3
3
3
3
3
3
3
3
3
3
3
3
3
3
3
3
3
3
3
3
3
3
3
3
3
3
3
3
3
3
3
3
3
3
3
3
3
3
3
3
3
3
3
3
3
3
3
3
3
3
3
3
3
3
3
3
3
3
3
3
3
3
3
3
3
3
3
3
3
3
3
3
3
3
3
3
3
3
3
3
3
3
3
3
3
3
3
3
3
3
3
3
3
3
3
3
3
3
3
3
3
3
3
3
3
3
3
3
3
3
3
3
3
3
3
3
3
3
3
3
3
3
3
3
3
3
3
3
3
3
3
3
3
3
3
3
3
3
3
3
3
3
3
3
3
3
3
3
3
3
3
3
3
3
3
3
3
3
3
3
3
3
3
3
3
3
3
3
3
3
3
3
3
3
3
3
3
3
3
3
3
3
3
3
3
3
POINT_DATA 251
FIELD FieldData 1
DISPLACEMENT 3 251  float
0.0000000e+00 0.0000000e+00 0.0000000e+00 
0.0000000e+00 0.0000000e+00 0.0000000e+00 
0.0000000e+00 -2.2644285e-04 0.0000000e+00 
0.0000000e+00 -4.5286224e-04 0.0000000e+00 
0.0000000e+00 -6.7923474e-04 0.0000000e+00 
0.0000000e+00 -9.0553681e-04 0.0000000e+00 
0.0000000e+00 -1.1317451e-03 0.0000000e+00 
0.0000000e+00 -1.3578361e-03 0.0000000e+00 
0.0000000e+00 -1.5837862e-03 0.0000000e+00 
0.0000000e+00 -1.8095722e-03 0.0000000e+00 
0.0000000e+00 -2.0351706e-03 0.0000000e+00 
0.0000000e+00 -2.2605578e-03 0.0000000e+00 
0.0000000e+00 -2.4857104e-03 0.0000000e+00 
0.0000000e+00 -2.7106050e-03 0.0000000e+00 
0.0000000e+00 -2.9352184e-03 0.0000000e+00 
0.0000000e+00 -3.1595265e-03 0.0000000e+00 
0.0000000e+00 -3.3835066e-03 0.0000000e+00 
0.0000000e+00 -3.6071346e-03 0.0000000e+00 
0.0000000e+00 -3.8303875e-03 0.0000000e+00 
0.0000000e+00 -4.0532416e-03 0.0000000e+00 
0.0000000e+00 -4.2756740e-03 0.0000000e+00 
0.0000000e+00 -4.4976603e-03 0.0000000e+00 
0.0000000e+00 -4.7191782e-03 0.0000000e+00 
0.0000000e+00 -4.9402034e-03 0.0000000e+00 
0.0000000e+00 -5.1607131e-03 0.0000000e+00 
0.0000000e+00 -5.3806831e-03 0.0000000e+00 
0.0000000e+00 -5.6000911e-03 0.0000000e+00 
0.0000000e+00 -5.8189128e-03 0.0000000e+00 
0.0000000e+00 -6.0371249e-03 0.0000000e+00 
0.0000000e+00 -6.2547042e-03 0.0000000e+00 
0.0000000e+00 -6.4716274e-03 0.0000000e+00 
0.0000000e+00 -6.6878712e-03 0.0000000e+00 
0.0000000e+00 -6.9034123e-03 0.0000000e+00 
0.0000000e+00 -7.1182265e-03 0.0000000e+00 
0.0000000e+00 -7.3322915e-03 0.0000000e+00 
0.0000000e+00 -7.5455830e-03 0.0000000e+00 
0.0000000e+00 -7.7580782e-03 0.0000000e+00 
0.0000000e+00 -7.9697538e-03 0.0000000e+00 
0.0000000e+00 -8.1805866e-03 0.0000000e+00 
0.0000000e+00 -8.3905524e-03 0.0000000e+00 
0.0000000e+00 -8.5996287e-03 0.0000000e+00 
0.0000000e+00 -8.8077923e-03 0.0000000e+00 
0.0000000e+00 -9.0150191e-03 0.0000000e+00 
0.0000000e+00 -9.2212865e-03 0.0000000e+00 
0.0000000e+00 -9.4265705e-03 0.0000000e+00 
0.0000000e+00 -9.6308487e-03 0.0000000e+00 
0.0000000e+00 -9.8340968e-03 0.0000000e+00 
0.0000000e+00 -1.0036293e-02 0.0000000e+00 
0.0000000e+00 -1.0237413e-02 0.0000000e+00 
0.0000000e+00 -1.0437434e-02 0.0000000e+00 
0.0000000e+00 -1.0636332e-02 0.0000000e+00 
0.0000000e+00 -1.0834084e-02 0.0000000e+00 
0.0000000e+00 -1.1030667e-02 0.0000000e+00 
0.0000000e+00 -1.1226058e-02 0.0000000e+00 
0.0000000e+00 -1.1420234e-02 0.0000000e+00 
0.0000000e+00 -1.1613172e-02 0.0000000e+00 
0.0000000e+00 -1.1804847e-02 0.0000000e+00 
0.0000000e+00 -1.1995237e-02 0.0000000e+00 
0.0000000e+00 -1.2184320e-02 0.0000000e+00 
0.0000000e+00 -1.2372072e-02 0.0000000e+00 
0.0000000e+00 -1.2558469e-02 0.0000000e+00 
0.0000000e+00 -1.2743489e-02 0.0000000e+00 
0.0000000e+00 -1.2927108e-02 0.0000000e+00 
0.0000000e+00 -1.3109303e-02 0.0000000e+00 
0.0000000e+00 -1.3290052e-02 0.0000000e+00 
0.0000000e+00 -1.3469332e-02 0.0000000e+00 
0.0000000e+00 -1.3647118e-02 0.0000000e+00 
0.0000000e+00 -1.3823388e-02 0.0000000e+00 
0.0000000e+00 -1.3998120e-02 0.0000000e+00 
0.0000000e+00 -1.4171290e-02 0.0000000e+00 
0.0000000e+00 -1.4342874e-02 0.0000000e+00 
0.0000000e+00 -1.4512852e-02 0.0000000e+00 
0.0000000e+00 -1.4681198e-02 0.0000000e+00 
0.0000000e+00 -1.4847890e-02 0.0000000e+00 
0.0000000e+00 -1.5012906e-02 0.0000000e+00 
0.0000000e+00 -1.5176222e-02 0.0000000e+00 
0.0000000e+00 -1.5337816e-02 0.0000000e+00 
0.0000000e+00 -1.5497663e-02 0.0000000e+00 
0.0000000e+00 -1.5655743e-02 0.0000000e+00 
0.0000000e+00 -1.5812032e-02 0.0000000e+00 
0.0000000e+00 -1.5966507e-02 0.0000000e+00 
0.0000000e+00 -1.6119143e-02 0.0000000e+00 
0.0000000e+00 -1.6269922e-02 0.0000000e+00 
0.0000000e+00 -1.6418817e-02 0.0000000e+00 
0.0000000e+00 -1.6565807e-02 0.0000000e+00 
0.0000000e+00 -1.6710870e-02 0.0000000e+00 
0.0000000e+00 -1.6853981e-02 0.0000000e+00 
0.0000000e+00 -1.6995119e-02 0.0000000e+00 
0.0000000e+00 -1.7134260e-02 0.0000000e+00 
0.0000000e+00 -1.7271385e-02 0.0000000e+00 
0.0000000e+00 -1.7406465e-02 0.0000000e+00 
0.0000000e+00 -1.7539483e-02 0.0000000e+00 
0.0000000e+00 -1.7670413e-02 0.0000000e+00 
0.0000000e+00 -1.7799234e-02 0.0000000e+00 
0.0000000e+00 -1.7925924e-02 0.0000000e+00 
0.0000000e+00 -1.8050458e-02 0.0000000e+00 
0.0000000e+00 -1.8172817e-02 0.0000000e+00 
0.0000000e+00 -1.8292975e-02 0.0000000e+00 
0.0000000e+00 -1.8410912e-02 0.0000000e+00 
0.0000000e+00 -1.8526603e-02 0.0000000e+00 
0.0000000e+00 -1.8640028e-02 0.0000000e+00 
0.0000000e+00 -1.8751163e-02 0.0000000e+00 
0.0000000e+00 -1.8859986e-02 0.0000000e+00 
0.0000000e+00 -1.8966476e-02 0.0000000e+00 
0.0000000e+00 -1.9070609e-02 0.0000000e+00 
0.0000000e+00 -1.9172361e-02 0.0000000e+00 
0.0000000e+00 -1.9271715e-02 0.0000000e+00 
0.0000000e+00 -1.9368643e-02 0.0000000e+00 
0.0000000e+00 -1.9463126e-02 0.0000000e+00 
0.0000000e+00 -1.9555140e-02 0.0000000e+00 
0.0000000e+00 -1.9644666e-02 0.0000000e+00 
0.0000000e+00 -1.9731678e-02 0.0000000e+00 
0.0000000e+00 -1.9816155e-02 0.0000000e+00 
0.0000000e+00 -1.9898076e-02 0.0000000e+00 
0.0000000e+00 -1.9977417e-02 0.0000000e+00 
0.0000000e+00 -2.0054158e-02 0.0000000e+00 
0.0000000e+00 -2.0128274e-02 0.0000000e+00 
0.0000000e+00 -2.0199748e-02 0.0000000e+00 
0.0000000e+00 -2.0268552e-02 0.0000000e+00 
0.0000000e+00 -2.0334667e-02 0.0000000e+00 
0.0000000e+00 -2.0398071e-02 0.0000000e+00 
0.0000000e+00 -2.0458743e-02 0.0000000e+00 
0.0000000e+00 -2.0516658e-02 0.0000000e+00 
0.0000000e+00 -2.0571796e-02 0.0000000e+00 
0.0000000e+00 -2.0624137e-02 0.0000000e+00 
0.0000000e+00 -2.0673657e-02 0.0000000e+00 
0.0000000e+00 -2.0720333e-02 0.0000000e+00 
0.0000000e+00 -2.0764144e-02 0.0000000e+00 
0.0000000e+00 -2.0805070e-02 0.0000000e+00 
0.0000000e+00 -2.0843089e-02 0.0000000e+00 
0.0000000e+00 -2.0878177e-02 0.0000000e+00 
0.0000000e+00 -2.0910315e-02 0.0000000e+00 
0.0000000e+00 -2.0939481e-02 0.0000000e+00 
0.0000000e+00 -2.0965649e-02 0.0000000e+00 
0.0000000e+00 -2.0988803e-02 0.0000000e+00 
0.0000000e+00 -2.1008920e-02 0.0000000e+00 
0.0000000e+00 -2.1025976e-02 0.0000000e+00 
0.0000000e+00 -2.1039952e-02 0.0000000e+00 
0.0000000e+00 -2.1050826e-02 0.0000000e+00 
0.0000000e+00 -2.1058576e-02 0.0000000e+00 
0.0000000e+00 -2.1063183e-02 0.0000000e+00 
0.0000000e+00 -2.1064620e-02 0.0000000e+00 
0.0000000e+00 -2.1062871e-02 0.0000000e+00 
0.0000000e+00 -2.1057913e-02 0.0000000e+00 
0.0000000e+00 -2.1049723e-02 0.0000000e+00 
0.0000000e+00 -2.1038283e-02 0.0000000e+00 
0.0000000e+00 -2.1023570e-02 0.0000000e+00 
0.0000000e+00 -2.1005562e-02 0.0000000e+00 
0.0000000e+00 -2.0984238e-02 0.0000000e+00 
0.0000000e+00 -2.0959578e-02 0.0000000e+00 
0.0000000e+00 -2.0931562e-02 0.0000000e+00 
0.0000000e+00 -2.0900166e-02 0.0000000e+00 
0.0000000e+00 -2.0865370e-02 0.0000000e+00 
0.0000000e+00 -2.0827154e-02 0.0000000e+00 
0.0000000e+00 -2.0785496e-02 0.0000000e+00 
0.0000000e+00 -2.0740375e-02 0.0000000e+00 
0.0000000e+00 -2.0691769e-02 0.0000000e+00 
0.0000000e+00 -2.0639660e-02 0.0000000e+00 
0.0000000e+00 -2.0584026e-02 0.0000000e+00 
0.0000000e+00 -2.0524845e-02 0.0000000e+00 
0.0000000e+00 -2.0462096e-02 0.0000000e+00 
0.0000000e+00 -2.0395759e-02 0.0000000e+00 
0.0000000e+00 -2.0325815e-02 0.0000000e+00 
0.0000000e+00 -2.0252241e-02 0.0000000e+00 
0.0000000e+00 -2.0175017e-02 0.0000000e+00 
0.0000000e+00 -2.0094123e-02 0.0000000e+00 
0.0000000e+00 -2.0009536e-02 0.0000000e+00 
0.0000000e+00 -1.9921239e-02 0.0000000e+00 
0.0000000e+00 -1.9829210e-02 0.0000000e+00 
0.0000000e+00 -1.9733427e-02 0.0000000e+00 
0.0000000e+00 -1.9633871e-02 0.0000000e+00 
0.0000000e+00 -1.9530520e-02 0.0000000e+00 
0.0000000e+00 -1.9423354e-02 0.0000000e+00 
0.0000000e+00 -1.9312354e-02 0.0000000e+00 
0.0000000e+00 -1.9197499e-02 0.0000000e+00 
0.0000000e+00 -1.9078771e-02 0.0000000e+00 
0.0000000e+00 -1.8956145e-02 0.0000000e+00 
0.0000000e+00 -1.8829603e-02 0.0000000e+00 
0.0000000e+00 -1.8699124e-02 0.0000000e+00 
0.0000000e+00 -1.8564690e-02 0.0000000e+00 
0.0000000e+00 -1.8426280e-02 0.0000000e+00 
0.0000000e+00 -1.8283874e-02 0.0000000e+00 
0.0000000e+00 -1.8137448e-02 0.0000000e+00 
0.0000000e+00 -1.7986983e-02 0.0000000e+00 
0.0000000e+00 -1.7832462e-02 0.0000000e+00 
0.0000000e+00 -1.7673869e-02 0.0000000e+00 
0.0000000e+00 -1.7511180e-02 0.0000000e+00 
0.0000000e+00 -1.7344370e-02 0.0000000e+00 
0.0000000e+00 -1.7173419e-02 0.0000000e+00 
0.0000000e+00 -1.6998310e-02 0.0000000e+00 
0.0000000e+00 -1.6819028e-02 0.0000000e+00 
0.0000000e+00 -1.6635558e-02 0.0000000e+00 
0.0000000e+00 -1.6447872e-02 0.0000000e+00 
0.0000000e+00 -1.6255939e-02 0.0000000e+00 
0.0000000e+00 -1.6059740e-02 0.0000000e+00 
0.0000000e+00 -1.5859269e-02 0.0000000e+00 
0.0000000e+00 -1.5654523e-02 0.0000000e+00 
0.0000000e+00 -1.5445543e-02 0.0000000e+00 
0.0000000e+00 -1.5232406e-02 0.0000000e+00 
0.0000000e+00 -1.5015185e-02 0.0000000e+00 
0.0000000e+00 -1.4793959e-02 0.0000000e+00 
0.0000000e+00 -1.4568806e-02 0.0000000e+00 
0.0000000e+00 -1.4339799e-02 0.0000000e+00 
0.0000000e+00 -1.4107016e-02 0.0000000e+00 
0.0000000e+00 -1.3870534e-02 0.0000000e+00 
0.0000000e+00 -1.3630430e-02 0.0000000e+00 
0.0000000e+00 -1.3386780e-02 0.0000000e+00 
0.0000000e+00 -1.3139661e-02 0.0000000e+00 
0.0000000e+00 -1.2889150e-02 0.0000000e+00 
0.0000000e+00 -1.2635323e-02 0.0000000e+00 
0.0000000e+00 -1.2378257e-02 0.0000000e+00 
0.0000000e+00 -1.2118029e-02 0.0000000e+00 
0.0000000e+00 -1.1854717e-02 0.0000000e+00 
0.0000000e+00 -1.1588395e-02 0.0000000e+00 
0.0000000e+00 -1.1319142e-02 0.0000000e+00 
0.0000000e+00 -1.1047035e-02 0.0000000e+00 
0.0000000e+00 -1.0772150e-02 0.0000000e+00 
0.0000000e+00 -1.0494564e-02 0.0000000e+00 
0.0000000e+00 -1.0214354e-02 0.0000000e+00 
0.0000000e+00 -9.9315979e-03 0.0000000e+00 
0.0000000e+00 -9.6463719e-03 0.0000000e+00 
0.0000000e+00 -9.3587525e-03 0.0000000e+00 
0.0000000e+00 -9.0688178e-03 0.0000000e+00 
0.0000000e+00 -8.7766433e-03 0.0000000e+00 
0.0000000e+00 -8.4823081e-03 0.0000000e+00 
0.0000000e+00 -8.1858877e-03 0.0000000e+00 
0.0000000e+00 -7.8874603e-03 0.0000000e+00 
0.0000000e+00 -7.5871018e-03 0.0000000e+00 
0.0000000e+00 -7.2848899e-03 0.0000000e+00 
0.0000000e+00 -6.9809020e-03 0.0000000e+00 
0.0000000e+00 -6.6752150e-03 0.0000000e+00 
0.0000000e+00 -6.3679060e-03 0.0000000e+00 
0.0000000e+00 -6.0590520e-03 0.0000000e+00 
0.0000000e+00 -5.7487302e-03 0.0000000e+00 
0.0000000e+00 -5.4370183e-03 0.0000000e+00 
0.0000000e+00 -5.1239929e-03 0.0000000e+00 
0.0000000e+00 -4.8097316e-03 0.0000000e+00 
0.0000000e+00 -4.4943113e-03 0.0000000e+00 
0.0000000e+00 -4.1778092e-03 0.0000000e+00 
0.0000000e+00 -3.8603027e-03 0.0000000e+00 
0.0000000e+00 -3.5418691e-03 0.0000000e+00 
0.0000000e+00 -3.2225857e-03 0.0000000e+00 
0.0000000e+00 -2.9025294e-03 0.0000000e+00 
0.0000000e+00 -2.5817777e-03 0.0000000e+00 
0.0000000e+00 -2.2604079e-03 0.0000000e+00 
0.0000000e+00 -1.9384969e-03 0.0000000e+00 
0.0000000e+00 -1.6161226e-03 0.0000000e+00 
0.0000000e+00 -1.2933617e-03 0.0000000e+00 
0.0000000e+00 -9.7029173e-04 0.0000000e+00 
0.0000000e+00 -6.4698997e-04 0.0000000e+00 
0.0000000e+00 -3.2353363e-04 0.0000000e+00 
CELL_DATA 250
FIELD FieldData 0
