# vtk DataFile Version 4.0
vtk output
ASCII
DATASET UNSTRUCTURED_GRID
POINTS 251 float
0.0000000e+00 0.0000000e+00 0.0000000e+00 
2.5000000e+01 0.0000000e+00 0.0000000e+00 
1.0000000e-01 0.0000000e+00 0.0000000e+00 
2.0000000e-01 0.0000000e+00 0.0000000e+00 
3.0000001e-01 0.0000000e+00 0.0000000e+00 
4.0000001e-01 0.0000000e+00 0.0000000e+00 
5.0000000e-01 0.0000000e+00 0.0000000e+00 
6.0000002e-01 0.0000000e+00 0.0000000e+00 
6.9999999e-01 0.0000000e+00 0.0000000e+00 
8.0000001e-01 0.0000000e+00 0.0000000e+00 
8.9999998e-01 0.0000000e+00 0.0000000e+00 
1.0000000e+00 0.0000000e+00 0.0000000e+00 
1.1000000e+00 0.0000000e+00 0.0000000e+00 
1.2000000e+00 0.0000000e+00 0.0000000e+00 
1.3000000e+00 0.0000000e+00 0.0000000e+00 
1.4000000e+00 0.0000000e+00 0.0000000e+00 
1.5000000e+00 0.0000000e+00 0.0000000e+00 
1.6000000e+00 0.0000000e+00 0.0000000e+00 
1.7000000e+00 0.0000000e+00 0.0000000e+00 
1.8000000e+00 0.0000000e+00 0.0000000e+00 
1.9000000e+00 0.0000000e+00 0.0000000e+00 
2.0000000e+00 0.0000000e+00 0.0000000e+00 
2.0999999e+00 0.0000000e+00 0.0000000e+00 
2.2000000e+00 0.0000000e+00 0.0000000e+00 
2.3000000e+00 0.0000000e+00 0.0000000e+00 
2.4000001e+00 0.0000000e+00 0.0000000e+00 
2.5000000e+00 0.0000000e+00 0.0000000e+00 
2.5999999e+00 0.0000000e+00 0.0000000e+00 
2.7000000e+00 0.0000000e+00 0.0000000e+00 
2.8000000e+00 0.0000000e+00 0.0000000e+00 
2.9000001e+00 0.0000000e+00 0.0000000e+00 
3.0000000e+00 0.0000000e+00 0.0000000e+00 
3.0999999e+00 0.0000000e+00 0.0000000e+00 
3.2000000e+00 0.0000000e+00 0.0000000e+00 
3.3000000e+00 0.0000000e+00 0.0000000e+00 
3.4000001e+00 0.0000000e+00 0.0000000e+00 
3.5000000e+00 0.0000000e+00 0.0000000e+00 
3.5999999e+00 0.0000000e+00 0.0000000e+00 
3.7000000e+00 0.0000000e+00 0.0000000e+00 
3.8000000e+00 0.0000000e+00 0.0000000e+00 
3.9000001e+00 0.0000000e+00 0.0000000e+00 
4.0000000e+00 0.0000000e+00 0.0000000e+00 
4.0999999e+00 0.0000000e+00 0.0000000e+00 
4.1999998e+00 0.0000000e+00 0.0000000e+00 
4.3000002e+00 0.0000000e+00 0.0000000e+00 
4.4000001e+00 0.0000000e+00 0.0000000e+00 
4.5000000e+00 0.0000000e+00 0.0000000e+00 
4.5999999e+00 0.0000000e+00 0.0000000e+00 
4.6999998e+00 0.0000000e+00 0.0000000e+00 
4.8000002e+00 0.0000000e+00 0.0000000e+00 
4.9000001e+00 0.0000000e+00 0.0000000e+00 
5.0000000e+00 0.0000000e+00 0.0000000e+00 
5.0999999e+00 0.0000000e+00 0.0000000e+00 
5.1999998e+00 0.0000000e+00 0.0000000e+00 
5.3000002e+00 0.0000000e+00 0.0000000e+00 
5.4000001e+00 0.0000000e+00 0.0000000e+00 
5.5000000e+00 0.0000000e+00 0.0000000e+00 
5.5999999e+00 0.0000000e+00 0.0000000e+00 
5.6999998e+00 0.0000000e+00 0.0000000e+00 
5.8000002e+00 0.0000000e+00 0.0000000e+00 
5.9000001e+00 0.0000000e+00 0.0000000e+00 
6.0000000e+00 0.0000000e+00 0.0000000e+00 
6.0999999e+00 0.0000000e+00 0.0000000e+00 
6.1999998e+00 0.0000000e+00 0.0000000e+00 
6.3000002e+00 0.0000000e+00 0.0000000e+00 
6.4000001e+00 0.0000000e+00 0.0000000e+00 
6.5000000e+00 0.0000000e+00 0.0000000e+00 
6.5999999e+00 0.0000000e+00 0.0000000e+00 
6.6999998e+00 0.0000000e+00 0.0000000e+00 
6.8000002e+00 0.0000000e+00 0.0000000e+00 
6.9000001e+00 0.0000000e+00 0.0000000e+00 
7.0000000e+00 0.0000000e+00 0.0000000e+00 
7.0999999e+00 0.0000000e+00 0.0000000e+00 
7.1999998e+00 0.0000000e+00 0.0000000e+00 
7.3000002e+00 0.0000000e+00 0.0000000e+00 
7.4000001e+00 0.0000000e+00 0.0000000e+00 
7.5000000e+00 0.0000000e+00 0.0000000e+00 
7.5999999e+00 0.0000000e+00 0.0000000e+00 
7.6999998e+00 0.0000000e+00 0.0000000e+00 
7.8000002e+00 0.0000000e+00 0.0000000e+00 
7.9000001e+00 0.0000000e+00 0.0000000e+00 
8.0000000e+00 0.0000000e+00 0.0000000e+00 
8.1000004e+00 0.0000000e+00 0.0000000e+00 
8.1999998e+00 0.0000000e+00 0.0000000e+00 
8.3000002e+00 0.0000000e+00 0.0000000e+00 
8.3999996e+00 0.0000000e+00 0.0000000e+00 
8.5000000e+00 0.0000000e+00 0.0000000e+00 
8.6000004e+00 0.0000000e+00 0.0000000e+00 
8.6999998e+00 0.0000000e+00 0.0000000e+00 
8.8000002e+00 0.0000000e+00 0.0000000e+00 
8.8999996e+00 0.0000000e+00 0.0000000e+00 
9.0000000e+00 0.0000000e+00 0.0000000e+00 
9.1000004e+00 0.0000000e+00 0.0000000e+00 
9.1999998e+00 0.0000000e+00 0.0000000e+00 
9.3000002e+00 0.0000000e+00 0.0000000e+00 
9.3999996e+00 0.0000000e+00 0.0000000e+00 
9.5000000e+00 0.0000000e+00 0.0000000e+00 
9.6000004e+00 0.0000000e+00 0.0000000e+00 
9.6999998e+00 0.0000000e+00 0.0000000e+00 
9.8000002e+00 0.0000000e+00 0.0000000e+00 
9.8999996e+00 0.0000000e+00 0.0000000e+00 
1.0000000e+01 0.0000000e+00 0.0000000e+00 
1.0100000e+01 0.0000000e+00 0.0000000e+00 
1.0200000e+01 0.0000000e+00 0.0000000e+00 
1.0300000e+01 0.0000000e+00 0.0000000e+00 
1.0400000e+01 0.0000000e+00 0.0000000e+00 
1.0500000e+01 0.0000000e+00 0.0000000e+00 
1.0600000e+01 0.0000000e+00 0.0000000e+00 
1.0700000e+01 0.0000000e+00 0.0000000e+00 
1.0800000e+01 0.0000000e+00 0.0000000e+00 
1.0900000e+01 0.0000000e+00 0.0000000e+00 
1.1000000e+01 0.0000000e+00 0.0000000e+00 
1.1100000e+01 0.0000000e+00 0.0000000e+00 
1.1200000e+01 0.0000000e+00 0.0000000e+00 
1.1300000e+01 0.0000000e+00 0.0000000e+00 
1.1400000e+01 0.0000000e+00 0.0000000e+00 
1.1500000e+01 0.0000000e+00 0.0000000e+00 
1.1600000e+01 0.0000000e+00 0.0000000e+00 
1.1700000e+01 0.0000000e+00 0.0000000e+00 
1.1800000e+01 0.0000000e+00 0.0000000e+00 
1.1900000e+01 0.0000000e+00 0.0000000e+00 
1.2000000e+01 0.0000000e+00 0.0000000e+00 
1.2100000e+01 0.0000000e+00 0.0000000e+00 
1.2200000e+01 0.0000000e+00 0.0000000e+00 
1.2300000e+01 0.0000000e+00 0.0000000e+00 
1.2400000e+01 0.0000000e+00 0.0000000e+00 
1.2500000e+01 0.0000000e+00 0.0000000e+00 
1.2600000e+01 0.0000000e+00 0.0000000e+00 
1.2700000e+01 0.0000000e+00 0.0000000e+00 
1.2800000e+01 0.0000000e+00 0.0000000e+00 
1.2900000e+01 0.0000000e+00 0.0000000e+00 
1.3000000e+01 0.0000000e+00 0.0000000e+00 
1.3100000e+01 0.0000000e+00 0.0000000e+00 
1.3200000e+01 0.0000000e+00 0.0000000e+00 
1.3300000e+01 0.0000000e+00 0.0000000e+00 
1.3400000e+01 0.0000000e+00 0.0000000e+00 
1.3500000e+01 0.0000000e+00 0.0000000e+00 
1.3600000e+01 0.0000000e+00 0.0000000e+00 
1.3700000e+01 0.0000000e+00 0.0000000e+00 
1.3800000e+01 0.0000000e+00 0.0000000e+00 
1.3900000e+01 0.0000000e+00 0.0000000e+00 
1.4000000e+01 0.0000000e+00 0.0000000e+00 
1.4100000e+01 0.0000000e+00 0.0000000e+00 
1.4200000e+01 0.0000000e+00 0.0000000e+00 
1.4300000e+01 0.0000000e+00 0.0000000e+00 
1.4400000e+01 0.0000000e+00 0.0000000e+00 
1.4500000e+01 0.0000000e+00 0.0000000e+00 
1.4600000e+01 0.0000000e+00 0.0000000e+00 
1.4700000e+01 0.0000000e+00 0.0000000e+00 
1.4800000e+01 0.0000000e+00 0.0000000e+00 
1.4900000e+01 0.0000000e+00 0.0000000e+00 
1.5000000e+01 0.0000000e+00 0.0000000e+00 
1.5100000e+01 0.0000000e+00 0.0000000e+00 
1.5200000e+01 0.0000000e+00 0.0000000e+00 
1.5300000e+01 0.0000000e+00 0.0000000e+00 
1.5400000e+01 0.0000000e+00 0.0000000e+00 
1.5500000e+01 0.0000000e+00 0.0000000e+00 
1.5600000e+01 0.0000000e+00 0.0000000e+00 
1.5700000e+01 0.0000000e+00 0.0000000e+00 
1.5800000e+01 0.0000000e+00 0.0000000e+00 
1.5900000e+01 0.0000000e+00 0.0000000e+00 
1.6000000e+01 0.0000000e+00 0.0000000e+00 
1.6100000e+01 0.0000000e+00 0.0000000e+00 
1.6200001e+01 0.0000000e+00 0.0000000e+00 
1.6299999e+01 0.0000000e+00 0.0000000e+00 
1.6400000e+01 0.0000000e+00 0.0000000e+00 
1.6500000e+01 0.0000000e+00 0.0000000e+00 
1.6600000e+01 0.0000000e+00 0.0000000e+00 
1.6700001e+01 0.0000000e+00 0.0000000e+00 
1.6799999e+01 0.0000000e+00 0.0000000e+00 
1.6900000e+01 0.0000000e+00 0.0000000e+00 
1.7000000e+01 0.0000000e+00 0.0000000e+00 
1.7100000e+01 0.0000000e+00 0.0000000e+00 
1.7200001e+01 0.0000000e+00 0.0000000e+00 
1.7299999e+01 0.0000000e+00 0.0000000e+00 
1.7400000e+01 0.0000000e+00 0.0000000e+00 
1.7500000e+01 0.0000000e+00 0.0000000e+00 
1.7600000e+01 0.0000000e+00 0.0000000e+00 
1.7700001e+01 0.0000000e+00 0.0000000e+00 
1.7799999e+01 0.0000000e+00 0.0000000e+00 
1.7900000e+01 0.0000000e+00 0.0000000e+00 
1.8000000e+01 0.0000000e+00 0.0000000e+00 
1.8100000e+01 0.0000000e+00 0.0000000e+00 
1.8200001e+01 0.0000000e+00 0.0000000e+00 
1.8299999e+01 0.0000000e+00 0.0000000e+00 
1.8400000e+01 0.0000000e+00 0.0000000e+00 
1.8500000e+01 0.0000000e+00 0.0000000e+00 
1.8600000e+01 0.0000000e+00 0.0000000e+00 
1.8700001e+01 0.0000000e+00 0.0000000e+00 
1.8799999e+01 0.0000000e+00 0.0000000e+00 
1.8900000e+01 0.0000000e+00 0.0000000e+00 
1.9000000e+01 0.0000000e+00 0.0000000e+00 
1.9100000e+01 0.0000000e+00 0.0000000e+00 
1.9200001e+01 0.0000000e+00 0.0000000e+00 
1.9299999e+01 0.0000000e+00 0.0000000e+00 
1.9400000e+01 0.0000000e+00 0.0000000e+00 
1.9500000e+01 0.0000000e+00 0.0000000e+00 
1.9600000e+01 0.0000000e+00 0.0000000e+00 
1.9700001e+01 0.0000000e+00 0.0000000e+00 
1.9799999e+01 0.0000000e+00 0.0000000e+00 
1.9900000e+01 0.0000000e+00 0.0000000e+00 
2.0000000e+01 0.0000000e+00 0.0000000e+00 
2.0100000e+01 0.0000000e+00 0.0000000e+00 
2.0200001e+01 0.0000000e+00 0.0000000e+00 
2.0299999e+01 0.0000000e+00 0.0000000e+00 
2.0400000e+01 0.0000000e+00 0.0000000e+00 
2.0500000e+01 0.0000000e+00 0.0000000e+00 
2.0600000e+01 0.0000000e+00 0.0000000e+00 
2.0700001e+01 0.0000000e+00 0.0000000e+00 
2.0799999e+01 0.0000000e+00 0.0000000e+00 
2.0900000e+01 0.0000000e+00 0.0000000e+00 
2.1000000e+01 0.0000000e+00 0.0000000e+00 
2.1100000e+01 0.0000000e+00 0.0000000e+00 
2.1200001e+01 0.0000000e+00 0.0000000e+00 
2.1299999e+01 0.0000000e+00 0.0000000e+00 
2.1400000e+01 0.0000000e+00 0.0000000e+00 
2.1500000e+01 0.0000000e+00 0.0000000e+00 
2.1600000e+01 0.0000000e+00 0.0000000e+00 
2.1700001e+01 0.0000000e+00 0.0000000e+00 
2.1799999e+01 0.0000000e+00 0.0000000e+00 
2.1900000e+01 0.0000000e+00 0.0000000e+00 
2.2000000e+01 0.0000000e+00 0.0000000e+00 
2.2100000e+01 0.0000000e+00 0.0000000e+00 
2.2200001e+01 0.0000000e+00 0.0000000e+00 
2.2299999e+01 0.0000000e+00 0.0000000e+00 
2.2400000e+01 0.0000000e+00 0.0000000e+00 
2.2500000e+01 0.0000000e+00 0.0000000e+00 
2.2600000e+01 0.0000000e+00 0.0000000e+00 
2.2700001e+01 0.0000000e+00 0.0000000e+00 
2.2799999e+01 0.0000000e+00 0.0000000e+00 
2.2900000e+01 0.0000000e+00 0.0000000e+00 
2.3000000e+01 0.0000000e+00 0.0000000e+00 
2.3100000e+01 0.0000000e+00 0.0000000e+00 
2.3200001e+01 0.0000000e+00 0.0000000e+00 
2.3299999e+01 0.0000000e+00 0.0000000e+00 
2.3400000e+01 0.0000000e+00 0.0000000e+00 
2.3500000e+01 0.0000000e+00 0.0000000e+00 
2.3600000e+01 0.0000000e+00 0.0000000e+00 
2.3700001e+01 0.0000000e+00 0.0000000e+00 
2.3799999e+01 0.0000000e+00 0.0000000e+00 
2.3900000e+01 0.0000000e+00 0.0000000e+00 
2.4000000e+01 0.0000000e+00 0.0000000e+00 
2.4100000e+01 0.0000000e+00 0.0000000e+00 
2.4200001e+01 0.0000000e+00 0.0000000e+00 
2.4299999e+01 0.0000000e+00 0.0000000e+00 
2.4400000e+01 0.0000000e+00 0.0000000e+00 
2.4500000e+01 0.0000000e+00 0.0000000e+00 
2.4600000e+01 0.0000000e+00 0.0000000e+00 
2.4700001e+01 0.0000000e+00 0.0000000e+00 
2.4799999e+01 0.0000000e+00 0.0000000e+00 
2.4900000e+01 0.0000000e+00 0.0000000e+00 

CELLS 250 750
2 0 2
2 2 3
2 3 4
2 4 5
2 5 6
2 6 7
2 7 8
2 8 9
2 9 10
2 10 11
2 11 12
2 12 13
2 13 14
2 14 15
2 15 16
2 16 17
2 17 18
2 18 19
2 19 20
2 20 21
2 21 22
2 22 23
2 23 24
2 24 25
2 25 26
2 26 27
2 27 28
2 28 29
2 29 30
2 30 31
2 31 32
2 32 33
2 33 34
2 34 35
2 35 36
2 36 37
2 37 38
2 38 39
2 39 40
2 40 41
2 41 42
2 42 43
2 43 44
2 44 45
2 45 46
2 46 47
2 47 48
2 48 49
2 49 50
2 50 51
2 51 52
2 52 53
2 53 54
2 54 55
2 55 56
2 56 57
2 57 58
2 58 59
2 59 60
2 60 61
2 61 62
2 62 63
2 63 64
2 64 65
2 65 66
2 66 67
2 67 68
2 68 69
2 69 70
2 70 71
2 71 72
2 72 73
2 73 74
2 74 75
2 75 76
2 76 77
2 77 78
2 78 79
2 79 80
2 80 81
2 81 82
2 82 83
2 83 84
2 84 85
2 85 86
2 86 87
2 87 88
2 88 89
2 89 90
2 90 91
2 91 92
2 92 93
2 93 94
2 94 95
2 95 96
2 96 97
2 97 98
2 98 99
2 99 100
2 100 101
2 101 102
2 102 103
2 103 104
2 104 105
2 105 106
2 106 107
2 107 108
2 108 109
2 109 110
2 110 111
2 111 112
2 112 113
2 113 114
2 114 115
2 115 116
2 116 117
2 117 118
2 118 119
2 119 120
2 120 121
2 121 122
2 122 123
2 123 124
2 124 125
2 125 126
2 126 127
2 127 128
2 128 129
2 129 130
2 130 131
2 131 132
2 132 133
2 133 134
2 134 135
2 135 136
2 136 137
2 137 138
2 138 139
2 139 140
2 140 141
2 141 142
2 142 143
2 143 144
2 144 145
2 145 146
2 146 147
2 147 148
2 148 149
2 149 150
2 150 151
2 151 152
2 152 153
2 153 154
2 154 155
2 155 156
2 156 157
2 157 158
2 158 159
2 159 160
2 160 161
2 161 162
2 162 163
2 163 164
2 164 165
2 165 166
2 166 167
2 167 168
2 168 169
2 169 170
2 170 171
2 171 172
2 172 173
2 173 174
2 174 175
2 175 176
2 176 177
2 177 178
2 178 179
2 179 180
2 180 181
2 181 182
2 182 183
2 183 184
2 184 185
2 185 186
2 186 187
2 187 188
2 188 189
2 189 190
2 190 191
2 191 192
2 192 193
2 193 194
2 194 195
2 195 196
2 196 197
2 197 198
2 198 199
2 199 200
2 200 201
2 201 202
2 202 203
2 203 204
2 204 205
2 205 206
2 206 207
2 207 208
2 208 209
2 209 210
2 210 211
2 211 212
2 212 213
2 213 214
2 214 215
2 215 216
2 216 217
2 217 218
2 218 219
2 219 220
2 220 221
2 221 222
2 222 223
2 223 224
2 224 225
2 225 226
2 226 227
2 227 228
2 228 229
2 229 230
2 230 231
2 231 232
2 232 233
2 233 234
2 234 235
2 235 236
2 236 237
2 237 238
2 238 239
2 239 240
2 240 241
2 241 242
2 242 243
2 243 244
2 244 245
2 245 246
2 246 247
2 247 248
2 248 249
2 249 250
2 250 1

CELL_TYPES 250
3
3
3
3
3
3
3
3
3
3
3
3
3
3
3
3
3
3
3
3
3
3
3
3
3
3
3
3
3
3
3
3
3
3
3
3
3
3
3
3
3
3
3
3
3
3
3
3
3
3
3
3
3
3
3
3
3
3
3
3
3
3
3
3
3
3
3
3
3
3
3
3
3
3
3
3
3
3
3
3
3
3
3
3
3
3
3
3
3
3
3
3
3
3
3
3
3
3
3
3
3
3
3
3
3
3
3
3
3
3
3
3
3
3
3
3
3
3
3
3
3
3
3
3
3
3
3
3
3
3
3
3
3
3
3
3
3
3
3
3
3
3
3
3
3
3
3
3
3
3
3
3
3
3
3
3
3
3
3
3
3
3
3
3
3
3
3
3
3
3
3
3
3
3
3
3
3
3
3
3
3
3
3
3
3
3
3
3
3
3
3
3
3
3
3
3
3
3
3
3
3
3
3
3
3
3
3
3
3
3
3
3
3
3
3
3
3
3
3
3
3
3
3
3
3
3
3
3
3
3
3
3
3
3
3
3
3
3
3
3
3
3
3
3
3
3
3
3
3
3
POINT_DATA 251
FIELD FieldData 1
DISPLACEMENT 3 251  float
0.0000000e+00 0.0000000e+00 0.0000000e+00 
0.0000000e+00 0.0000000e+00 0.0000000e+00 
0.0000000e+00 -2.8974982e-04 0.0000000e+00 
0.0000000e+00 -5.7946856e-04 0.0000000e+00 
0.0000000e+00 -8.6912519e-04 0.0000000e+00 
0.0000000e+00 -1.1586886e-03 0.0000000e+00 
0.0000000e+00 -1.4481276e-03 0.0000000e+00 
0.0000000e+00 -1.7374113e-03 0.0000000e+00 
0.0000000e+00 -2.0265086e-03 0.0000000e+00 
0.0000000e+00 -2.3153883e-03 0.0000000e+00 
0.0000000e+00 -2.6040194e-03 0.0000000e+00 
0.0000000e+00 -2.8923708e-03 0.0000000e+00 
0.0000000e+00 -3.1804114e-03 0.0000000e+00 
0.0000000e+00 -3.4681102e-03 0.0000000e+00 
0.0000000e+00 -3.7554360e-03 0.0000000e+00 
0.0000000e+00 -4.0423577e-03 0.0000000e+00 
0.0000000e+00 -4.3288446e-03 0.0000000e+00 
0.0000000e+00 -4.6148654e-03 0.0000000e+00 
0.0000000e+00 -4.9003884e-03 0.0000000e+00 
0.0000000e+00 -5.1853838e-03 0.0000000e+00 
0.0000000e+00 -5.4698191e-03 0.0000000e+00 
0.0000000e+00 -5.7536643e-03 0.0000000e+00 
0.0000000e+00 -6.0368879e-03 0.0000000e+00 
0.0000000e+00 -6.3194586e-03 0.0000000e+00 
0.0000000e+00 -6.6013457e-03 0.0000000e+00 
0.0000000e+00 -6.8825176e-03 0.0000000e+00 
0.0000000e+00 -7.1629439e-03 0.0000000e+00 
0.0000000e+00 -7.4425931e-03 0.0000000e+00 
0.0000000e+00 -7.7214343e-03 0.0000000e+00 
0.0000000e+00 -7.9994360e-03 0.0000000e+00 
0.0000000e+00 -8.2765669e-03 0.0000000e+00 
0.0000000e+00 -8.5527971e-03 0.0000000e+00 
0.0000000e+00 -8.8280942e-03 0.0000000e+00 
0.0000000e+00 -9.1024283e-03 0.0000000e+00 
0.0000000e+00 -9.3757669e-03 0.0000000e+00 
0.0000000e+00 -9.6480800e-03 0.0000000e+00 
0.0000000e+00 -9.9193361e-03 0.0000000e+00 
0.0000000e+00 -1.0189504e-02 0.0000000e+00 
0.0000000e+00 -1.0458553e-02 0.0000000e+00 
0.0000000e+00 -1.0726452e-02 0.0000000e+00 
0.0000000e+00 -1.0993169e-02 0.0000000e+00 
0.0000000e+00 -1.1258673e-02 0.0000000e+00 
0.0000000e+00 -1.1522933e-02 0.0000000e+00 
0.0000000e+00 -1.1785919e-02 0.0000000e+00 
0.0000000e+00 -1.2047599e-02 0.0000000e+00 
0.0000000e+00 -1.2307941e-02 0.0000000e+00 
0.0000000e+00 -1.2566916e-02 0.0000000e+00 
0.0000000e+00 -1.2824491e-02 0.0000000e+00 
0.0000000e+00 -1.3080634e-02 0.0000000e+00 
0.0000000e+00 -1.3335317e-02 0.0000000e+00 
0.0000000e+00 -1.3588507e-02 0.0000000e+00 
0.0000000e+00 -1.3840172e-02 0.0000000e+00 
0.0000000e+00 -1.4090282e-02 0.0000000e+00 
0.0000000e+00 -1.4338806e-02 0.0000000e+00 
0.0000000e+00 -1.4585712e-02 0.0000000e+00 
0.0000000e+00 -1.4830970e-02 0.0000000e+00 
0.0000000e+00 -1.5074547e-02 0.0000000e+00 
0.0000000e+00 -1.5316414e-02 0.0000000e+00 
0.0000000e+00 -1.5556538e-02 0.0000000e+00 
0.0000000e+00 -1.5794888e-02 0.0000000e+00 
0.0000000e+00 -1.6031433e-02 0.0000000e+00 
0.0000000e+00 -1.6266143e-02 0.0000000e+00 
0.0000000e+00 -1.6498985e-02 0.0000000e+00 
0.0000000e+00 -1.6729929e-02 0.0000000e+00 
0.0000000e+00 -1.6958944e-02 0.0000000e+00 
0.0000000e+00 -1.7185997e-02 0.0000000e+00 
0.0000000e+00 -1.7411059e-02 0.0000000e+00 
0.0000000e+00 -1.7634096e-02 0.0000000e+00 
0.0000000e+00 -1.7855078e-02 0.0000000e+00 
0.0000000e+00 -1.8073976e-02 0.0000000e+00 
0.0000000e+00 -1.8290754e-02 0.0000000e+00 
0.0000000e+00 -1.8505385e-02 0.0000000e+00 
0.0000000e+00 -1.8717837e-02 0.0000000e+00 
0.0000000e+00 -1.8928077e-02 0.0000000e+00 
0.0000000e+00 -1.9136075e-02 0.0000000e+00 
0.0000000e+00 -1.9341798e-02 0.0000000e+00 
0.0000000e+00 -1.9545216e-02 0.0000000e+00 
0.0000000e+00 -1.9746298e-02 0.0000000e+00 
0.0000000e+00 -1.9945012e-02 0.0000000e+00 
0.0000000e+00 -2.0141328e-02 0.0000000e+00 
0.0000000e+00 -2.0335210e-02 0.0000000e+00 
0.0000000e+00 -2.0526635e-02 0.0000000e+00 
0.0000000e+00 -2.0715563e-02 0.0000000e+00 
0.0000000e+00 -2.0901967e-02 0.0000000e+00 
0.0000000e+00 -2.1085816e-02 0.0000000e+00 
0.0000000e+00 -2.1267077e-02 0.0000000e+00 
0.0000000e+00 -2.1445718e-02 0.0000000e+00 
0.0000000e+00 -2.1621710e-02 0.0000000e+00 
0.0000000e+00 -2.1795018e-02 0.0000000e+00 
0.0000000e+00 -2.1965615e-02 0.0000000e+00 
0.0000000e+00 -2.2133466e-02 0.0000000e+00 
0.0000000e+00 -2.2298541e-02 0.0000000e+00 
0.0000000e+00 -2.2460809e-02 0.0000000e+00 
0.0000000e+00 -2.2620237e-02 0.0000000e+00 
0.0000000e+00 -2.2776794e-02 0.0000000e+00 
0.0000000e+00 -2.2930449e-02 0.0000000e+00 
0.0000000e+00 -2.3081170e-02 0.0000000e+00 
0.0000000e+00 -2.3228927e-02 0.0000000e+00 
0.0000000e+00 -2.3373686e-02 0.0000000e+00 
0.0000000e+00 -2.3515416e-02 0.0000000e+00 
0.0000000e+00 -2.3654087e-02 0.0000000e+00 
0.0000000e+00 -2.3789667e-02 0.0000000e+00 
0.0000000e+00 -2.3922121e-02 0.0000000e+00 
0.0000000e+00 -2.4051422e-02 0.0000000e+00 
0.0000000e+00 -2.4177536e-02 0.0000000e+00 
0.0000000e+00 -2.4300432e-02 0.0000000e+00 
0.0000000e+00 -2.4420079e-02 0.0000000e+00 
0.0000000e+00 -2.4536444e-02 0.0000000e+00 
0.0000000e+00 -2.4649495e-02 0.0000000e+00 
0.0000000e+00 -2.4759201e-02 0.0000000e+00 
0.0000000e+00 -2.4865530e-02 0.0000000e+00 
0.0000000e+00 -2.4968453e-02 0.0000000e+00 
0.0000000e+00 -2.5067933e-02 0.0000000e+00 
0.0000000e+00 -2.5163943e-02 0.0000000e+00 
0.0000000e+00 -2.5256449e-02 0.0000000e+00 
0.0000000e+00 -2.5345419e-02 0.0000000e+00 
0.0000000e+00 -2.5430821e-02 0.0000000e+00 
0.0000000e+00 -2.5512625e-02 0.0000000e+00 
0.0000000e+00 -2.5590798e-02 0.0000000e+00 
0.0000000e+00 -2.5665307e-02 0.0000000e+00 
0.0000000e+00 -2.5736121e-02 0.0000000e+00 
0.0000000e+00 -2.5803210e-02 0.0000000e+00 
0.0000000e+00 -2.5866540e-02 0.0000000e+00 
0.0000000e+00 -2.5926080e-02 0.0000000e+00 
0.0000000e+00 -2.5981795e-02 0.0000000e+00 
0.0000000e+00 -2.6033659e-02 0.0000000e+00 
0.0000000e+00 -2.6081633e-02 0.0000000e+00 
0.0000000e+00 -2.6125690e-02 0.0000000e+00 
0.0000000e+00 -2.6165798e-02 0.0000000e+00 
0.0000000e+00 -2.6201922e-02 0.0000000e+00 
0.0000000e+00 -2.6234033e-02 0.0000000e+00 
0.0000000e+00 -2.6262095e-02 0.0000000e+00 
0.0000000e+00 -2.6286080e-02 0.0000000e+00 
0.0000000e+00 -2.6305955e-02 0.0000000e+00 
0.0000000e+00 -2.6321685e-02 0.0000000e+00 
0.0000000e+00 -2.6333241e-02 0.0000000e+00 
0.0000000e+00 -2.6340591e-02 0.0000000e+00 
0.0000000e+00 -2.6343700e-02 0.0000000e+00 
0.0000000e+00 -2.6342537e-02 0.0000000e+00 
0.0000000e+00 -2.6337072e-02 0.0000000e+00 
0.0000000e+00 -2.6327271e-02 0.0000000e+00 
0.0000000e+00 -2.6313100e-02 0.0000000e+00 
0.0000000e+00 -2.6294531e-02 0.0000000e+00 
0.0000000e+00 -2.6271528e-02 0.0000000e+00 
0.0000000e+00 -2.6244059e-02 0.0000000e+00 
0.0000000e+00 -2.6212094e-02 0.0000000e+00 
0.0000000e+00 -2.6175600e-02 0.0000000e+00 
0.0000000e+00 -2.6134543e-02 0.0000000e+00 
0.0000000e+00 -2.6088892e-02 0.0000000e+00 
0.0000000e+00 -2.6038613e-02 0.0000000e+00 
0.0000000e+00 -2.5983676e-02 0.0000000e+00 
0.0000000e+00 -2.5924047e-02 0.0000000e+00 
0.0000000e+00 -2.5859697e-02 0.0000000e+00 
0.0000000e+00 -2.5790589e-02 0.0000000e+00 
0.0000000e+00 -2.5716692e-02 0.0000000e+00 
0.0000000e+00 -2.5637971e-02 0.0000000e+00 
0.0000000e+00 -2.5554396e-02 0.0000000e+00 
0.0000000e+00 -2.5465937e-02 0.0000000e+00 
0.0000000e+00 -2.5372565e-02 0.0000000e+00 
0.0000000e+00 -2.5274238e-02 0.0000000e+00 
0.0000000e+00 -2.5170922e-02 0.0000000e+00 
0.0000000e+00 -2.5062587e-02 0.0000000e+00 
0.0000000e+00 -2.4949206e-02 0.0000000e+00 
0.0000000e+00 -2.4830753e-02 0.0000000e+00 
0.0000000e+00 -2.4707187e-02 0.0000000e+00 
0.0000000e+00 -2.4578465e-02 0.0000000e+00 
0.0000000e+00 -2.4444552e-02 0.0000000e+00 
0.0000000e+00 -2.4305427e-02 0.0000000e+00 
0.0000000e+00 -2.4161072e-02 0.0000000e+00 
0.0000000e+00 -2.4011504e-02 0.0000000e+00 
0.0000000e+00 -2.3856780e-02 0.0000000e+00 
0.0000000e+00 -2.3696963e-02 0.0000000e+00 
0.0000000e+00 -2.3532117e-02 0.0000000e+00 
0.0000000e+00 -2.3362307e-02 0.0000000e+00 
0.0000000e+00 -2.3187594e-02 0.0000000e+00 
0.0000000e+00 -2.3008041e-02 0.0000000e+00 
0.0000000e+00 -2.2823714e-02 0.0000000e+00 
0.0000000e+00 -2.2634676e-02 0.0000000e+00 
0.0000000e+00 -2.2440987e-02 0.0000000e+00 
0.0000000e+00 -2.2242712e-02 0.0000000e+00 
0.0000000e+00 -2.2039916e-02 0.0000000e+00 
0.0000000e+00 -2.1832660e-02 0.0000000e+00 
0.0000000e+00 -2.1621009e-02 0.0000000e+00 
0.0000000e+00 -2.1405024e-02 0.0000000e+00 
0.0000000e+00 -2.1184770e-02 0.0000000e+00 
0.0000000e+00 -2.0960310e-02 0.0000000e+00 
0.0000000e+00 -2.0731708e-02 0.0000000e+00 
0.0000000e+00 -2.0499023e-02 0.0000000e+00 
0.0000000e+00 -2.0262323e-02 0.0000000e+00 
0.0000000e+00 -2.0021668e-02 0.0000000e+00 
0.0000000e+00 -1.9777123e-02 0.0000000e+00 
0.0000000e+00 -1.9528750e-02 0.0000000e+00 
0.0000000e+00 -1.9276612e-02 0.0000000e+00 
0.0000000e+00 -1.9020773e-02 0.0000000e+00 
0.0000000e+00 -1.8761296e-02 0.0000000e+00 
0.0000000e+00 -1.8498242e-02 0.0000000e+00 
0.0000000e+00 -1.8231677e-02 0.0000000e+00 
0.0000000e+00 -1.7961660e-02 0.0000000e+00 
0.0000000e+00 -1.7688259e-02 0.0000000e+00 
0.0000000e+00 -1.7411534e-02 0.0000000e+00 
0.0000000e+00 -1.7131548e-02 0.0000000e+00 
0.0000000e+00 -1.6848363e-02 0.0000000e+00 
0.0000000e+00 -1.6562045e-02 0.0000000e+00 
0.0000000e+00 -1.6272655e-02 0.0000000e+00 
0.0000000e+00 -1.5980257e-02 0.0000000e+00 
0.0000000e+00 -1.5684910e-02 0.0000000e+00 
0.0000000e+00 -1.5386682e-02 0.0000000e+00 
0.0000000e+00 -1.5085634e-02 0.0000000e+00 
0.0000000e+00 -1.4781828e-02 0.0000000e+00 
0.0000000e+00 -1.4475327e-02 0.0000000e+00 
0.0000000e+00 -1.4166195e-02 0.0000000e+00 
0.0000000e+00 -1.3854493e-02 0.0000000e+00 
0.0000000e+00 -1.3540287e-02 0.0000000e+00 
0.0000000e+00 -1.3223636e-02 0.0000000e+00 
0.0000000e+00 -1.2904605e-02 0.0000000e+00 
0.0000000e+00 -1.2583256e-02 0.0000000e+00 
0.0000000e+00 -1.2259652e-02 0.0000000e+00 
0.0000000e+00 -1.1933857e-02 0.0000000e+00 
0.0000000e+00 -1.1605931e-02 0.0000000e+00 
0.0000000e+00 -1.1275939e-02 0.0000000e+00 
0.0000000e+00 -1.0943943e-02 0.0000000e+00 
0.0000000e+00 -1.0610006e-02 0.0000000e+00 
0.0000000e+00 -1.0274190e-02 0.0000000e+00 
0.0000000e+00 -9.9365581e-03 0.0000000e+00 
0.0000000e+00 -9.5971730e-03 0.0000000e+00 
0.0000000e+00 -9.2560975e-03 0.0000000e+00 
0.0000000e+00 -8.9133950e-03 0.0000000e+00 
0.0000000e+00 -8.5691269e-03 0.0000000e+00 
0.0000000e+00 -8.2233557e-03 0.0000000e+00 
0.0000000e+00 -7.8761457e-03 0.0000000e+00 
0.0000000e+00 -7.5275586e-03 0.0000000e+00 
0.0000000e+00 -7.1776565e-03 0.0000000e+00 
0.0000000e+00 -6.8265027e-03 0.0000000e+00 
0.0000000e+00 -6.4741597e-03 0.0000000e+00 
0.0000000e+00 -6.1206901e-03 0.0000000e+00 
0.0000000e+00 -5.7661566e-03 0.0000000e+00 
0.0000000e+00 -5.4106214e-03 0.0000000e+00 
0.0000000e+00 -5.0541479e-03 0.0000000e+00 
0.0000000e+00 -4.6967980e-03 0.0000000e+00 
0.0000000e+00 -4.3386347e-03 0.0000000e+00 
0.0000000e+00 -3.9797206e-03 0.0000000e+00 
0.0000000e+00 -3.6201179e-03 0.0000000e+00 
0.0000000e+00 -3.2598893e-03 0.0000000e+00 
0.0000000e+00 -2.8990977e-03 0.0000000e+00 
0.0000000e+00 -2.5378056e-03 0.0000000e+00 
0.0000000e+00 -2.1760755e-03 0.0000000e+00 
0.0000000e+00 -1.8139697e-03 0.0000000e+00 
0.0000000e+00 -1.4515512e-03 0.0000000e+00 
0.0000000e+00 -1.0888824e-03 0.0000000e+00 
0.0000000e+00 -7.2602590e-04 0.0000000e+00 
0.0000000e+00 -3.6304424e-04 0.0000000e+00 
CELL_DATA 250
FIELD FieldData 0
