# vtk DataFile Version 4.0
vtk output
ASCII
DATASET UNSTRUCTURED_GRID
POINTS 251 float
0.0000000e+00 0.0000000e+00 0.0000000e+00 
2.5000000e+01 0.0000000e+00 0.0000000e+00 
1.0000000e-01 0.0000000e+00 0.0000000e+00 
2.0000000e-01 0.0000000e+00 0.0000000e+00 
3.0000001e-01 0.0000000e+00 0.0000000e+00 
4.0000001e-01 0.0000000e+00 0.0000000e+00 
5.0000000e-01 0.0000000e+00 0.0000000e+00 
6.0000002e-01 0.0000000e+00 0.0000000e+00 
6.9999999e-01 0.0000000e+00 0.0000000e+00 
8.0000001e-01 0.0000000e+00 0.0000000e+00 
8.9999998e-01 0.0000000e+00 0.0000000e+00 
1.0000000e+00 0.0000000e+00 0.0000000e+00 
1.1000000e+00 0.0000000e+00 0.0000000e+00 
1.2000000e+00 0.0000000e+00 0.0000000e+00 
1.3000000e+00 0.0000000e+00 0.0000000e+00 
1.4000000e+00 0.0000000e+00 0.0000000e+00 
1.5000000e+00 0.0000000e+00 0.0000000e+00 
1.6000000e+00 0.0000000e+00 0.0000000e+00 
1.7000000e+00 0.0000000e+00 0.0000000e+00 
1.8000000e+00 0.0000000e+00 0.0000000e+00 
1.9000000e+00 0.0000000e+00 0.0000000e+00 
2.0000000e+00 0.0000000e+00 0.0000000e+00 
2.0999999e+00 0.0000000e+00 0.0000000e+00 
2.2000000e+00 0.0000000e+00 0.0000000e+00 
2.3000000e+00 0.0000000e+00 0.0000000e+00 
2.4000001e+00 0.0000000e+00 0.0000000e+00 
2.5000000e+00 0.0000000e+00 0.0000000e+00 
2.5999999e+00 0.0000000e+00 0.0000000e+00 
2.7000000e+00 0.0000000e+00 0.0000000e+00 
2.8000000e+00 0.0000000e+00 0.0000000e+00 
2.9000001e+00 0.0000000e+00 0.0000000e+00 
3.0000000e+00 0.0000000e+00 0.0000000e+00 
3.0999999e+00 0.0000000e+00 0.0000000e+00 
3.2000000e+00 0.0000000e+00 0.0000000e+00 
3.3000000e+00 0.0000000e+00 0.0000000e+00 
3.4000001e+00 0.0000000e+00 0.0000000e+00 
3.5000000e+00 0.0000000e+00 0.0000000e+00 
3.5999999e+00 0.0000000e+00 0.0000000e+00 
3.7000000e+00 0.0000000e+00 0.0000000e+00 
3.8000000e+00 0.0000000e+00 0.0000000e+00 
3.9000001e+00 0.0000000e+00 0.0000000e+00 
4.0000000e+00 0.0000000e+00 0.0000000e+00 
4.0999999e+00 0.0000000e+00 0.0000000e+00 
4.1999998e+00 0.0000000e+00 0.0000000e+00 
4.3000002e+00 0.0000000e+00 0.0000000e+00 
4.4000001e+00 0.0000000e+00 0.0000000e+00 
4.5000000e+00 0.0000000e+00 0.0000000e+00 
4.5999999e+00 0.0000000e+00 0.0000000e+00 
4.6999998e+00 0.0000000e+00 0.0000000e+00 
4.8000002e+00 0.0000000e+00 0.0000000e+00 
4.9000001e+00 0.0000000e+00 0.0000000e+00 
5.0000000e+00 0.0000000e+00 0.0000000e+00 
5.0999999e+00 0.0000000e+00 0.0000000e+00 
5.1999998e+00 0.0000000e+00 0.0000000e+00 
5.3000002e+00 0.0000000e+00 0.0000000e+00 
5.4000001e+00 0.0000000e+00 0.0000000e+00 
5.5000000e+00 0.0000000e+00 0.0000000e+00 
5.5999999e+00 0.0000000e+00 0.0000000e+00 
5.6999998e+00 0.0000000e+00 0.0000000e+00 
5.8000002e+00 0.0000000e+00 0.0000000e+00 
5.9000001e+00 0.0000000e+00 0.0000000e+00 
6.0000000e+00 0.0000000e+00 0.0000000e+00 
6.0999999e+00 0.0000000e+00 0.0000000e+00 
6.1999998e+00 0.0000000e+00 0.0000000e+00 
6.3000002e+00 0.0000000e+00 0.0000000e+00 
6.4000001e+00 0.0000000e+00 0.0000000e+00 
6.5000000e+00 0.0000000e+00 0.0000000e+00 
6.5999999e+00 0.0000000e+00 0.0000000e+00 
6.6999998e+00 0.0000000e+00 0.0000000e+00 
6.8000002e+00 0.0000000e+00 0.0000000e+00 
6.9000001e+00 0.0000000e+00 0.0000000e+00 
7.0000000e+00 0.0000000e+00 0.0000000e+00 
7.0999999e+00 0.0000000e+00 0.0000000e+00 
7.1999998e+00 0.0000000e+00 0.0000000e+00 
7.3000002e+00 0.0000000e+00 0.0000000e+00 
7.4000001e+00 0.0000000e+00 0.0000000e+00 
7.5000000e+00 0.0000000e+00 0.0000000e+00 
7.5999999e+00 0.0000000e+00 0.0000000e+00 
7.6999998e+00 0.0000000e+00 0.0000000e+00 
7.8000002e+00 0.0000000e+00 0.0000000e+00 
7.9000001e+00 0.0000000e+00 0.0000000e+00 
8.0000000e+00 0.0000000e+00 0.0000000e+00 
8.1000004e+00 0.0000000e+00 0.0000000e+00 
8.1999998e+00 0.0000000e+00 0.0000000e+00 
8.3000002e+00 0.0000000e+00 0.0000000e+00 
8.3999996e+00 0.0000000e+00 0.0000000e+00 
8.5000000e+00 0.0000000e+00 0.0000000e+00 
8.6000004e+00 0.0000000e+00 0.0000000e+00 
8.6999998e+00 0.0000000e+00 0.0000000e+00 
8.8000002e+00 0.0000000e+00 0.0000000e+00 
8.8999996e+00 0.0000000e+00 0.0000000e+00 
9.0000000e+00 0.0000000e+00 0.0000000e+00 
9.1000004e+00 0.0000000e+00 0.0000000e+00 
9.1999998e+00 0.0000000e+00 0.0000000e+00 
9.3000002e+00 0.0000000e+00 0.0000000e+00 
9.3999996e+00 0.0000000e+00 0.0000000e+00 
9.5000000e+00 0.0000000e+00 0.0000000e+00 
9.6000004e+00 0.0000000e+00 0.0000000e+00 
9.6999998e+00 0.0000000e+00 0.0000000e+00 
9.8000002e+00 0.0000000e+00 0.0000000e+00 
9.8999996e+00 0.0000000e+00 0.0000000e+00 
1.0000000e+01 0.0000000e+00 0.0000000e+00 
1.0100000e+01 0.0000000e+00 0.0000000e+00 
1.0200000e+01 0.0000000e+00 0.0000000e+00 
1.0300000e+01 0.0000000e+00 0.0000000e+00 
1.0400000e+01 0.0000000e+00 0.0000000e+00 
1.0500000e+01 0.0000000e+00 0.0000000e+00 
1.0600000e+01 0.0000000e+00 0.0000000e+00 
1.0700000e+01 0.0000000e+00 0.0000000e+00 
1.0800000e+01 0.0000000e+00 0.0000000e+00 
1.0900000e+01 0.0000000e+00 0.0000000e+00 
1.1000000e+01 0.0000000e+00 0.0000000e+00 
1.1100000e+01 0.0000000e+00 0.0000000e+00 
1.1200000e+01 0.0000000e+00 0.0000000e+00 
1.1300000e+01 0.0000000e+00 0.0000000e+00 
1.1400000e+01 0.0000000e+00 0.0000000e+00 
1.1500000e+01 0.0000000e+00 0.0000000e+00 
1.1600000e+01 0.0000000e+00 0.0000000e+00 
1.1700000e+01 0.0000000e+00 0.0000000e+00 
1.1800000e+01 0.0000000e+00 0.0000000e+00 
1.1900000e+01 0.0000000e+00 0.0000000e+00 
1.2000000e+01 0.0000000e+00 0.0000000e+00 
1.2100000e+01 0.0000000e+00 0.0000000e+00 
1.2200000e+01 0.0000000e+00 0.0000000e+00 
1.2300000e+01 0.0000000e+00 0.0000000e+00 
1.2400000e+01 0.0000000e+00 0.0000000e+00 
1.2500000e+01 0.0000000e+00 0.0000000e+00 
1.2600000e+01 0.0000000e+00 0.0000000e+00 
1.2700000e+01 0.0000000e+00 0.0000000e+00 
1.2800000e+01 0.0000000e+00 0.0000000e+00 
1.2900000e+01 0.0000000e+00 0.0000000e+00 
1.3000000e+01 0.0000000e+00 0.0000000e+00 
1.3100000e+01 0.0000000e+00 0.0000000e+00 
1.3200000e+01 0.0000000e+00 0.0000000e+00 
1.3300000e+01 0.0000000e+00 0.0000000e+00 
1.3400000e+01 0.0000000e+00 0.0000000e+00 
1.3500000e+01 0.0000000e+00 0.0000000e+00 
1.3600000e+01 0.0000000e+00 0.0000000e+00 
1.3700000e+01 0.0000000e+00 0.0000000e+00 
1.3800000e+01 0.0000000e+00 0.0000000e+00 
1.3900000e+01 0.0000000e+00 0.0000000e+00 
1.4000000e+01 0.0000000e+00 0.0000000e+00 
1.4100000e+01 0.0000000e+00 0.0000000e+00 
1.4200000e+01 0.0000000e+00 0.0000000e+00 
1.4300000e+01 0.0000000e+00 0.0000000e+00 
1.4400000e+01 0.0000000e+00 0.0000000e+00 
1.4500000e+01 0.0000000e+00 0.0000000e+00 
1.4600000e+01 0.0000000e+00 0.0000000e+00 
1.4700000e+01 0.0000000e+00 0.0000000e+00 
1.4800000e+01 0.0000000e+00 0.0000000e+00 
1.4900000e+01 0.0000000e+00 0.0000000e+00 
1.5000000e+01 0.0000000e+00 0.0000000e+00 
1.5100000e+01 0.0000000e+00 0.0000000e+00 
1.5200000e+01 0.0000000e+00 0.0000000e+00 
1.5300000e+01 0.0000000e+00 0.0000000e+00 
1.5400000e+01 0.0000000e+00 0.0000000e+00 
1.5500000e+01 0.0000000e+00 0.0000000e+00 
1.5600000e+01 0.0000000e+00 0.0000000e+00 
1.5700000e+01 0.0000000e+00 0.0000000e+00 
1.5800000e+01 0.0000000e+00 0.0000000e+00 
1.5900000e+01 0.0000000e+00 0.0000000e+00 
1.6000000e+01 0.0000000e+00 0.0000000e+00 
1.6100000e+01 0.0000000e+00 0.0000000e+00 
1.6200001e+01 0.0000000e+00 0.0000000e+00 
1.6299999e+01 0.0000000e+00 0.0000000e+00 
1.6400000e+01 0.0000000e+00 0.0000000e+00 
1.6500000e+01 0.0000000e+00 0.0000000e+00 
1.6600000e+01 0.0000000e+00 0.0000000e+00 
1.6700001e+01 0.0000000e+00 0.0000000e+00 
1.6799999e+01 0.0000000e+00 0.0000000e+00 
1.6900000e+01 0.0000000e+00 0.0000000e+00 
1.7000000e+01 0.0000000e+00 0.0000000e+00 
1.7100000e+01 0.0000000e+00 0.0000000e+00 
1.7200001e+01 0.0000000e+00 0.0000000e+00 
1.7299999e+01 0.0000000e+00 0.0000000e+00 
1.7400000e+01 0.0000000e+00 0.0000000e+00 
1.7500000e+01 0.0000000e+00 0.0000000e+00 
1.7600000e+01 0.0000000e+00 0.0000000e+00 
1.7700001e+01 0.0000000e+00 0.0000000e+00 
1.7799999e+01 0.0000000e+00 0.0000000e+00 
1.7900000e+01 0.0000000e+00 0.0000000e+00 
1.8000000e+01 0.0000000e+00 0.0000000e+00 
1.8100000e+01 0.0000000e+00 0.0000000e+00 
1.8200001e+01 0.0000000e+00 0.0000000e+00 
1.8299999e+01 0.0000000e+00 0.0000000e+00 
1.8400000e+01 0.0000000e+00 0.0000000e+00 
1.8500000e+01 0.0000000e+00 0.0000000e+00 
1.8600000e+01 0.0000000e+00 0.0000000e+00 
1.8700001e+01 0.0000000e+00 0.0000000e+00 
1.8799999e+01 0.0000000e+00 0.0000000e+00 
1.8900000e+01 0.0000000e+00 0.0000000e+00 
1.9000000e+01 0.0000000e+00 0.0000000e+00 
1.9100000e+01 0.0000000e+00 0.0000000e+00 
1.9200001e+01 0.0000000e+00 0.0000000e+00 
1.9299999e+01 0.0000000e+00 0.0000000e+00 
1.9400000e+01 0.0000000e+00 0.0000000e+00 
1.9500000e+01 0.0000000e+00 0.0000000e+00 
1.9600000e+01 0.0000000e+00 0.0000000e+00 
1.9700001e+01 0.0000000e+00 0.0000000e+00 
1.9799999e+01 0.0000000e+00 0.0000000e+00 
1.9900000e+01 0.0000000e+00 0.0000000e+00 
2.0000000e+01 0.0000000e+00 0.0000000e+00 
2.0100000e+01 0.0000000e+00 0.0000000e+00 
2.0200001e+01 0.0000000e+00 0.0000000e+00 
2.0299999e+01 0.0000000e+00 0.0000000e+00 
2.0400000e+01 0.0000000e+00 0.0000000e+00 
2.0500000e+01 0.0000000e+00 0.0000000e+00 
2.0600000e+01 0.0000000e+00 0.0000000e+00 
2.0700001e+01 0.0000000e+00 0.0000000e+00 
2.0799999e+01 0.0000000e+00 0.0000000e+00 
2.0900000e+01 0.0000000e+00 0.0000000e+00 
2.1000000e+01 0.0000000e+00 0.0000000e+00 
2.1100000e+01 0.0000000e+00 0.0000000e+00 
2.1200001e+01 0.0000000e+00 0.0000000e+00 
2.1299999e+01 0.0000000e+00 0.0000000e+00 
2.1400000e+01 0.0000000e+00 0.0000000e+00 
2.1500000e+01 0.0000000e+00 0.0000000e+00 
2.1600000e+01 0.0000000e+00 0.0000000e+00 
2.1700001e+01 0.0000000e+00 0.0000000e+00 
2.1799999e+01 0.0000000e+00 0.0000000e+00 
2.1900000e+01 0.0000000e+00 0.0000000e+00 
2.2000000e+01 0.0000000e+00 0.0000000e+00 
2.2100000e+01 0.0000000e+00 0.0000000e+00 
2.2200001e+01 0.0000000e+00 0.0000000e+00 
2.2299999e+01 0.0000000e+00 0.0000000e+00 
2.2400000e+01 0.0000000e+00 0.0000000e+00 
2.2500000e+01 0.0000000e+00 0.0000000e+00 
2.2600000e+01 0.0000000e+00 0.0000000e+00 
2.2700001e+01 0.0000000e+00 0.0000000e+00 
2.2799999e+01 0.0000000e+00 0.0000000e+00 
2.2900000e+01 0.0000000e+00 0.0000000e+00 
2.3000000e+01 0.0000000e+00 0.0000000e+00 
2.3100000e+01 0.0000000e+00 0.0000000e+00 
2.3200001e+01 0.0000000e+00 0.0000000e+00 
2.3299999e+01 0.0000000e+00 0.0000000e+00 
2.3400000e+01 0.0000000e+00 0.0000000e+00 
2.3500000e+01 0.0000000e+00 0.0000000e+00 
2.3600000e+01 0.0000000e+00 0.0000000e+00 
2.3700001e+01 0.0000000e+00 0.0000000e+00 
2.3799999e+01 0.0000000e+00 0.0000000e+00 
2.3900000e+01 0.0000000e+00 0.0000000e+00 
2.4000000e+01 0.0000000e+00 0.0000000e+00 
2.4100000e+01 0.0000000e+00 0.0000000e+00 
2.4200001e+01 0.0000000e+00 0.0000000e+00 
2.4299999e+01 0.0000000e+00 0.0000000e+00 
2.4400000e+01 0.0000000e+00 0.0000000e+00 
2.4500000e+01 0.0000000e+00 0.0000000e+00 
2.4600000e+01 0.0000000e+00 0.0000000e+00 
2.4700001e+01 0.0000000e+00 0.0000000e+00 
2.4799999e+01 0.0000000e+00 0.0000000e+00 
2.4900000e+01 0.0000000e+00 0.0000000e+00 

CELLS 250 750
2 0 2
2 2 3
2 3 4
2 4 5
2 5 6
2 6 7
2 7 8
2 8 9
2 9 10
2 10 11
2 11 12
2 12 13
2 13 14
2 14 15
2 15 16
2 16 17
2 17 18
2 18 19
2 19 20
2 20 21
2 21 22
2 22 23
2 23 24
2 24 25
2 25 26
2 26 27
2 27 28
2 28 29
2 29 30
2 30 31
2 31 32
2 32 33
2 33 34
2 34 35
2 35 36
2 36 37
2 37 38
2 38 39
2 39 40
2 40 41
2 41 42
2 42 43
2 43 44
2 44 45
2 45 46
2 46 47
2 47 48
2 48 49
2 49 50
2 50 51
2 51 52
2 52 53
2 53 54
2 54 55
2 55 56
2 56 57
2 57 58
2 58 59
2 59 60
2 60 61
2 61 62
2 62 63
2 63 64
2 64 65
2 65 66
2 66 67
2 67 68
2 68 69
2 69 70
2 70 71
2 71 72
2 72 73
2 73 74
2 74 75
2 75 76
2 76 77
2 77 78
2 78 79
2 79 80
2 80 81
2 81 82
2 82 83
2 83 84
2 84 85
2 85 86
2 86 87
2 87 88
2 88 89
2 89 90
2 90 91
2 91 92
2 92 93
2 93 94
2 94 95
2 95 96
2 96 97
2 97 98
2 98 99
2 99 100
2 100 101
2 101 102
2 102 103
2 103 104
2 104 105
2 105 106
2 106 107
2 107 108
2 108 109
2 109 110
2 110 111
2 111 112
2 112 113
2 113 114
2 114 115
2 115 116
2 116 117
2 117 118
2 118 119
2 119 120
2 120 121
2 121 122
2 122 123
2 123 124
2 124 125
2 125 126
2 126 127
2 127 128
2 128 129
2 129 130
2 130 131
2 131 132
2 132 133
2 133 134
2 134 135
2 135 136
2 136 137
2 137 138
2 138 139
2 139 140
2 140 141
2 141 142
2 142 143
2 143 144
2 144 145
2 145 146
2 146 147
2 147 148
2 148 149
2 149 150
2 150 151
2 151 152
2 152 153
2 153 154
2 154 155
2 155 156
2 156 157
2 157 158
2 158 159
2 159 160
2 160 161
2 161 162
2 162 163
2 163 164
2 164 165
2 165 166
2 166 167
2 167 168
2 168 169
2 169 170
2 170 171
2 171 172
2 172 173
2 173 174
2 174 175
2 175 176
2 176 177
2 177 178
2 178 179
2 179 180
2 180 181
2 181 182
2 182 183
2 183 184
2 184 185
2 185 186
2 186 187
2 187 188
2 188 189
2 189 190
2 190 191
2 191 192
2 192 193
2 193 194
2 194 195
2 195 196
2 196 197
2 197 198
2 198 199
2 199 200
2 200 201
2 201 202
2 202 203
2 203 204
2 204 205
2 205 206
2 206 207
2 207 208
2 208 209
2 209 210
2 210 211
2 211 212
2 212 213
2 213 214
2 214 215
2 215 216
2 216 217
2 217 218
2 218 219
2 219 220
2 220 221
2 221 222
2 222 223
2 223 224
2 224 225
2 225 226
2 226 227
2 227 228
2 228 229
2 229 230
2 230 231
2 231 232
2 232 233
2 233 234
2 234 235
2 235 236
2 236 237
2 237 238
2 238 239
2 239 240
2 240 241
2 241 242
2 242 243
2 243 244
2 244 245
2 245 246
2 246 247
2 247 248
2 248 249
2 249 250
2 250 1

CELL_TYPES 250
3
3
3
3
3
3
3
3
3
3
3
3
3
3
3
3
3
3
3
3
3
3
3
3
3
3
3
3
3
3
3
3
3
3
3
3
3
3
3
3
3
3
3
3
3
3
3
3
3
3
3
3
3
3
3
3
3
3
3
3
3
3
3
3
3
3
3
3
3
3
3
3
3
3
3
3
3
3
3
3
3
3
3
3
3
3
3
3
3
3
3
3
3
3
3
3
3
3
3
3
3
3
3
3
3
3
3
3
3
3
3
3
3
3
3
3
3
3
3
3
3
3
3
3
3
3
3
3
3
3
3
3
3
3
3
3
3
3
3
3
3
3
3
3
3
3
3
3
3
3
3
3
3
3
3
3
3
3
3
3
3
3
3
3
3
3
3
3
3
3
3
3
3
3
3
3
3
3
3
3
3
3
3
3
3
3
3
3
3
3
3
3
3
3
3
3
3
3
3
3
3
3
3
3
3
3
3
3
3
3
3
3
3
3
3
3
3
3
3
3
3
3
3
3
3
3
3
3
3
3
3
3
3
3
3
3
3
3
3
3
3
3
3
3
3
3
3
3
3
3
POINT_DATA 251
FIELD FieldData 1
DISPLACEMENT 3 251  float
0.0000000e+00 0.0000000e+00 0.0000000e+00 
0.0000000e+00 0.0000000e+00 0.0000000e+00 
0.0000000e+00 -3.8517226e-04 0.0000000e+00 
0.0000000e+00 -7.7029003e-04 0.0000000e+00 
0.0000000e+00 -1.1552989e-03 0.0000000e+00 
0.0000000e+00 -1.5401443e-03 0.0000000e+00 
0.0000000e+00 -1.9247719e-03 0.0000000e+00 
0.0000000e+00 -2.3091272e-03 0.0000000e+00 
0.0000000e+00 -2.6931555e-03 0.0000000e+00 
0.0000000e+00 -3.0768027e-03 0.0000000e+00 
0.0000000e+00 -3.4600142e-03 0.0000000e+00 
0.0000000e+00 -3.8427354e-03 0.0000000e+00 
0.0000000e+00 -4.2249118e-03 0.0000000e+00 
0.0000000e+00 -4.6064891e-03 0.0000000e+00 
0.0000000e+00 -4.9874131e-03 0.0000000e+00 
0.0000000e+00 -5.3676288e-03 0.0000000e+00 
0.0000000e+00 -5.7470817e-03 0.0000000e+00 
0.0000000e+00 -6.1257179e-03 0.0000000e+00 
0.0000000e+00 -6.5034828e-03 0.0000000e+00 
0.0000000e+00 -6.8803215e-03 0.0000000e+00 
0.0000000e+00 -7.2561796e-03 0.0000000e+00 
0.0000000e+00 -7.6310034e-03 0.0000000e+00 
0.0000000e+00 -8.0047371e-03 0.0000000e+00 
0.0000000e+00 -8.3773276e-03 0.0000000e+00 
0.0000000e+00 -8.7487195e-03 0.0000000e+00 
0.0000000e+00 -9.1188587e-03 0.0000000e+00 
0.0000000e+00 -9.4876904e-03 0.0000000e+00 
0.0000000e+00 -9.8551614e-03 0.0000000e+00 
0.0000000e+00 -1.0221215e-02 0.0000000e+00 
0.0000000e+00 -1.0585799e-02 0.0000000e+00 
0.0000000e+00 -1.0948857e-02 0.0000000e+00 
0.0000000e+00 -1.1310336e-02 0.0000000e+00 
0.0000000e+00 -1.1670181e-02 0.0000000e+00 
0.0000000e+00 -1.2028337e-02 0.0000000e+00 
0.0000000e+00 -1.2384751e-02 0.0000000e+00 
0.0000000e+00 -1.2739367e-02 0.0000000e+00 
0.0000000e+00 -1.3092130e-02 0.0000000e+00 
0.0000000e+00 -1.3442989e-02 0.0000000e+00 
0.0000000e+00 -1.3791885e-02 0.0000000e+00 
0.0000000e+00 -1.4138767e-02 0.0000000e+00 
0.0000000e+00 -1.4483579e-02 0.0000000e+00 
0.0000000e+00 -1.4826266e-02 0.0000000e+00 
0.0000000e+00 -1.5166775e-02 0.0000000e+00 
0.0000000e+00 -1.5505050e-02 0.0000000e+00 
0.0000000e+00 -1.5841039e-02 0.0000000e+00 
0.0000000e+00 -1.6174685e-02 0.0000000e+00 
0.0000000e+00 -1.6505934e-02 0.0000000e+00 
0.0000000e+00 -1.6834732e-02 0.0000000e+00 
0.0000000e+00 -1.7161025e-02 0.0000000e+00 
0.0000000e+00 -1.7484758e-02 0.0000000e+00 
0.0000000e+00 -1.7805876e-02 0.0000000e+00 
0.0000000e+00 -1.8124325e-02 0.0000000e+00 
0.0000000e+00 -1.8440053e-02 0.0000000e+00 
0.0000000e+00 -1.8753000e-02 0.0000000e+00 
0.0000000e+00 -1.9063117e-02 0.0000000e+00 
0.0000000e+00 -1.9370345e-02 0.0000000e+00 
0.0000000e+00 -1.9674633e-02 0.0000000e+00 
0.0000000e+00 -1.9975927e-02 0.0000000e+00 
0.0000000e+00 -2.0274168e-02 0.0000000e+00 
0.0000000e+00 -2.0569306e-02 0.0000000e+00 
0.0000000e+00 -2.0861283e-02 0.0000000e+00 
0.0000000e+00 -2.1150049e-02 0.0000000e+00 
0.0000000e+00 -2.1435546e-02 0.0000000e+00 
0.0000000e+00 -2.1717720e-02 0.0000000e+00 
0.0000000e+00 -2.1996517e-02 0.0000000e+00 
0.0000000e+00 -2.2271883e-02 0.0000000e+00 
0.0000000e+00 -2.2543762e-02 0.0000000e+00 
0.0000000e+00 -2.2812100e-02 0.0000000e+00 
0.0000000e+00 -2.3076845e-02 0.0000000e+00 
0.0000000e+00 -2.3337942e-02 0.0000000e+00 
0.0000000e+00 -2.3595333e-02 0.0000000e+00 
0.0000000e+00 -2.3848966e-02 0.0000000e+00 
0.0000000e+00 -2.4098786e-02 0.0000000e+00 
0.0000000e+00 -2.4344739e-02 0.0000000e+00 
0.0000000e+00 -2.4586771e-02 0.0000000e+00 
0.0000000e+00 -2.4824826e-02 0.0000000e+00 
0.0000000e+00 -2.5058851e-02 0.0000000e+00 
0.0000000e+00 -2.5288790e-02 0.0000000e+00 
0.0000000e+00 -2.5514591e-02 0.0000000e+00 
0.0000000e+00 -2.5736198e-02 0.0000000e+00 
0.0000000e+00 -2.5953555e-02 0.0000000e+00 
0.0000000e+00 -2.6166610e-02 0.0000000e+00 
0.0000000e+00 -2.6375307e-02 0.0000000e+00 
0.0000000e+00 -2.6579592e-02 0.0000000e+00 
0.0000000e+00 -2.6779411e-02 0.0000000e+00 
0.0000000e+00 -2.6974710e-02 0.0000000e+00 
0.0000000e+00 -2.7165433e-02 0.0000000e+00 
0.0000000e+00 -2.7351527e-02 0.0000000e+00 
0.0000000e+00 -2.7532935e-02 0.0000000e+00 
0.0000000e+00 -2.7709607e-02 0.0000000e+00 
0.0000000e+00 -2.7881484e-02 0.0000000e+00 
0.0000000e+00 -2.8048513e-02 0.0000000e+00 
0.0000000e+00 -2.8210642e-02 0.0000000e+00 
0.0000000e+00 -2.8367812e-02 0.0000000e+00 
0.0000000e+00 -2.8519973e-02 0.0000000e+00 
0.0000000e+00 -2.8667066e-02 0.0000000e+00 
0.0000000e+00 -2.8809043e-02 0.0000000e+00 
0.0000000e+00 -2.8945843e-02 0.0000000e+00 
0.0000000e+00 -2.9077413e-02 0.0000000e+00 
0.0000000e+00 -2.9203702e-02 0.0000000e+00 
0.0000000e+00 -2.9324651e-02 0.0000000e+00 
0.0000000e+00 -2.9440209e-02 0.0000000e+00 
0.0000000e+00 -2.9550321e-02 0.0000000e+00 
0.0000000e+00 -2.9654931e-02 0.0000000e+00 
0.0000000e+00 -2.9753985e-02 0.0000000e+00 
0.0000000e+00 -2.9847428e-02 0.0000000e+00 
0.0000000e+00 -2.9935209e-02 0.0000000e+00 
0.0000000e+00 -3.0017270e-02 0.0000000e+00 
0.0000000e+00 -3.0093556e-02 0.0000000e+00 
0.0000000e+00 -3.0164015e-02 0.0000000e+00 
0.0000000e+00 -3.0228596e-02 0.0000000e+00 
0.0000000e+00 -3.0287305e-02 0.0000000e+00 
0.0000000e+00 -3.0340182e-02 0.0000000e+00 
0.0000000e+00 -3.0387269e-02 0.0000000e+00 
0.0000000e+00 -3.0428611e-02 0.0000000e+00 
0.0000000e+00 -3.0464243e-02 0.0000000e+00 
0.0000000e+00 -3.0494213e-02 0.0000000e+00 
0.0000000e+00 -3.0518560e-02 0.0000000e+00 
0.0000000e+00 -3.0537324e-02 0.0000000e+00 
0.0000000e+00 -3.0550549e-02 0.0000000e+00 
0.0000000e+00 -3.0558277e-02 0.0000000e+00 
0.0000000e+00 -3.0560547e-02 0.0000000e+00 
0.0000000e+00 -3.0557403e-02 0.0000000e+00 
0.0000000e+00 -3.0548885e-02 0.0000000e+00 
0.0000000e+00 -3.0535037e-02 0.0000000e+00 
0.0000000e+00 -3.0515900e-02 0.0000000e+00 
0.0000000e+00 -3.0491512e-02 0.0000000e+00 
0.0000000e+00 -3.0461920e-02 0.0000000e+00 
0.0000000e+00 -3.0427163e-02 0.0000000e+00 
0.0000000e+00 -3.0387282e-02 0.0000000e+00 
0.0000000e+00 -3.0342320e-02 0.0000000e+00 
0.0000000e+00 -3.0292317e-02 0.0000000e+00 
0.0000000e+00 -3.0237317e-02 0.0000000e+00 
0.0000000e+00 -3.0177360e-02 0.0000000e+00 
0.0000000e+00 -3.0112490e-02 0.0000000e+00 
0.0000000e+00 -3.0042745e-02 0.0000000e+00 
0.0000000e+00 -2.9968169e-02 0.0000000e+00 
0.0000000e+00 -2.9888801e-02 0.0000000e+00 
0.0000000e+00 -2.9804686e-02 0.0000000e+00 
0.0000000e+00 -2.9715866e-02 0.0000000e+00 
0.0000000e+00 -2.9622380e-02 0.0000000e+00 
0.0000000e+00 -2.9524269e-02 0.0000000e+00 
0.0000000e+00 -2.9421577e-02 0.0000000e+00 
0.0000000e+00 -2.9314347e-02 0.0000000e+00 
0.0000000e+00 -2.9202618e-02 0.0000000e+00 
0.0000000e+00 -2.9086430e-02 0.0000000e+00 
0.0000000e+00 -2.8965829e-02 0.0000000e+00 
0.0000000e+00 -2.8840853e-02 0.0000000e+00 
0.0000000e+00 -2.8711546e-02 0.0000000e+00 
0.0000000e+00 -2.8577950e-02 0.0000000e+00 
0.0000000e+00 -2.8440105e-02 0.0000000e+00 
0.0000000e+00 -2.8298052e-02 0.0000000e+00 
0.0000000e+00 -2.8151834e-02 0.0000000e+00 
0.0000000e+00 -2.8001495e-02 0.0000000e+00 
0.0000000e+00 -2.7847072e-02 0.0000000e+00 
0.0000000e+00 -2.7688609e-02 0.0000000e+00 
0.0000000e+00 -2.7526148e-02 0.0000000e+00 
0.0000000e+00 -2.7359730e-02 0.0000000e+00 
0.0000000e+00 -2.7189394e-02 0.0000000e+00 
0.0000000e+00 -2.7015189e-02 0.0000000e+00 
0.0000000e+00 -2.6837150e-02 0.0000000e+00 
0.0000000e+00 -2.6655320e-02 0.0000000e+00 
0.0000000e+00 -2.6469741e-02 0.0000000e+00 
0.0000000e+00 -2.6280455e-02 0.0000000e+00 
0.0000000e+00 -2.6087506e-02 0.0000000e+00 
0.0000000e+00 -2.5890931e-02 0.0000000e+00 
0.0000000e+00 -2.5690775e-02 0.0000000e+00 
0.0000000e+00 -2.5487078e-02 0.0000000e+00 
0.0000000e+00 -2.5279883e-02 0.0000000e+00 
0.0000000e+00 -2.5069231e-02 0.0000000e+00 
0.0000000e+00 -2.4855163e-02 0.0000000e+00 
0.0000000e+00 -2.4637721e-02 0.0000000e+00 
0.0000000e+00 -2.4416948e-02 0.0000000e+00 
0.0000000e+00 -2.4192883e-02 0.0000000e+00 
0.0000000e+00 -2.3965569e-02 0.0000000e+00 
0.0000000e+00 -2.3735050e-02 0.0000000e+00 
0.0000000e+00 -2.3501365e-02 0.0000000e+00 
0.0000000e+00 -2.3264553e-02 0.0000000e+00 
0.0000000e+00 -2.3024661e-02 0.0000000e+00 
0.0000000e+00 -2.2781730e-02 0.0000000e+00 
0.0000000e+00 -2.2535799e-02 0.0000000e+00 
0.0000000e+00 -2.2286911e-02 0.0000000e+00 
0.0000000e+00 -2.2035105e-02 0.0000000e+00 
0.0000000e+00 -2.1780428e-02 0.0000000e+00 
0.0000000e+00 -2.1522917e-02 0.0000000e+00 
0.0000000e+00 -2.1262616e-02 0.0000000e+00 
0.0000000e+00 -2.0999566e-02 0.0000000e+00 
0.0000000e+00 -2.0733807e-02 0.0000000e+00 
0.0000000e+00 -2.0465385e-02 0.0000000e+00 
0.0000000e+00 -2.0194337e-02 0.0000000e+00 
0.0000000e+00 -1.9920707e-02 0.0000000e+00 
0.0000000e+00 -1.9644536e-02 0.0000000e+00 
0.0000000e+00 -1.9365868e-02 0.0000000e+00 
0.0000000e+00 -1.9084740e-02 0.0000000e+00 
0.0000000e+00 -1.8801197e-02 0.0000000e+00 
0.0000000e+00 -1.8515281e-02 0.0000000e+00 
0.0000000e+00 -1.8227031e-02 0.0000000e+00 
0.0000000e+00 -1.7936490e-02 0.0000000e+00 
0.0000000e+00 -1.7643701e-02 0.0000000e+00 
0.0000000e+00 -1.7348705e-02 0.0000000e+00 
0.0000000e+00 -1.7051542e-02 0.0000000e+00 
0.0000000e+00 -1.6752254e-02 0.0000000e+00 
0.0000000e+00 -1.6450884e-02 0.0000000e+00 
0.0000000e+00 -1.6147474e-02 0.0000000e+00 
0.0000000e+00 -1.5842063e-02 0.0000000e+00 
0.0000000e+00 -1.5534696e-02 0.0000000e+00 
0.0000000e+00 -1.5225413e-02 0.0000000e+00 
0.0000000e+00 -1.4914255e-02 0.0000000e+00 
0.0000000e+00 -1.4601264e-02 0.0000000e+00 
0.0000000e+00 -1.4286483e-02 0.0000000e+00 
0.0000000e+00 -1.3969952e-02 0.0000000e+00 
0.0000000e+00 -1.3651714e-02 0.0000000e+00 
0.0000000e+00 -1.3331808e-02 0.0000000e+00 
0.0000000e+00 -1.3010279e-02 0.0000000e+00 
0.0000000e+00 -1.2687167e-02 0.0000000e+00 
0.0000000e+00 -1.2362515e-02 0.0000000e+00 
0.0000000e+00 -1.2036362e-02 0.0000000e+00 
0.0000000e+00 -1.1708752e-02 0.0000000e+00 
0.0000000e+00 -1.1379725e-02 0.0000000e+00 
0.0000000e+00 -1.1049325e-02 0.0000000e+00 
0.0000000e+00 -1.0717590e-02 0.0000000e+00 
0.0000000e+00 -1.0384566e-02 0.0000000e+00 
0.0000000e+00 -1.0050291e-02 0.0000000e+00 
0.0000000e+00 -9.7148092e-03 0.0000000e+00 
0.0000000e+00 -9.3781604e-03 0.0000000e+00 
0.0000000e+00 -9.0403864e-03 0.0000000e+00 
0.0000000e+00 -8.7015303e-03 0.0000000e+00 
0.0000000e+00 -8.3616329e-03 0.0000000e+00 
0.0000000e+00 -8.0207363e-03 0.0000000e+00 
0.0000000e+00 -7.6788808e-03 0.0000000e+00 
0.0000000e+00 -7.3361094e-03 0.0000000e+00 
0.0000000e+00 -6.9924630e-03 0.0000000e+00 
0.0000000e+00 -6.6479840e-03 0.0000000e+00 
0.0000000e+00 -6.3027134e-03 0.0000000e+00 
0.0000000e+00 -5.9566931e-03 0.0000000e+00 
0.0000000e+00 -5.6099650e-03 0.0000000e+00 
0.0000000e+00 -5.2625700e-03 0.0000000e+00 
0.0000000e+00 -4.9145506e-03 0.0000000e+00 
0.0000000e+00 -4.5659477e-03 0.0000000e+00 
0.0000000e+00 -4.2168037e-03 0.0000000e+00 
0.0000000e+00 -3.8671596e-03 0.0000000e+00 
0.0000000e+00 -3.5170575e-03 0.0000000e+00 
0.0000000e+00 -3.1665387e-03 0.0000000e+00 
0.0000000e+00 -2.8156452e-03 0.0000000e+00 
0.0000000e+00 -2.4644185e-03 0.0000000e+00 
0.0000000e+00 -2.1129001e-03 0.0000000e+00 
0.0000000e+00 -1.7611319e-03 0.0000000e+00 
0.0000000e+00 -1.4091554e-03 0.0000000e+00 
0.0000000e+00 -1.0570124e-03 0.0000000e+00 
0.0000000e+00 -7.0474437e-04 0.0000000e+00 
0.0000000e+00 -3.5239299e-04 0.0000000e+00 
CELL_DATA 250
FIELD FieldData 0
