# vtk DataFile Version 4.0
vtk output
ASCII
DATASET UNSTRUCTURED_GRID
POINTS 251 float
0.0000000e+00 0.0000000e+00 0.0000000e+00 
2.5000000e+01 0.0000000e+00 0.0000000e+00 
1.0000000e-01 0.0000000e+00 0.0000000e+00 
2.0000000e-01 0.0000000e+00 0.0000000e+00 
3.0000001e-01 0.0000000e+00 0.0000000e+00 
4.0000001e-01 0.0000000e+00 0.0000000e+00 
5.0000000e-01 0.0000000e+00 0.0000000e+00 
6.0000002e-01 0.0000000e+00 0.0000000e+00 
6.9999999e-01 0.0000000e+00 0.0000000e+00 
8.0000001e-01 0.0000000e+00 0.0000000e+00 
8.9999998e-01 0.0000000e+00 0.0000000e+00 
1.0000000e+00 0.0000000e+00 0.0000000e+00 
1.1000000e+00 0.0000000e+00 0.0000000e+00 
1.2000000e+00 0.0000000e+00 0.0000000e+00 
1.3000000e+00 0.0000000e+00 0.0000000e+00 
1.4000000e+00 0.0000000e+00 0.0000000e+00 
1.5000000e+00 0.0000000e+00 0.0000000e+00 
1.6000000e+00 0.0000000e+00 0.0000000e+00 
1.7000000e+00 0.0000000e+00 0.0000000e+00 
1.8000000e+00 0.0000000e+00 0.0000000e+00 
1.9000000e+00 0.0000000e+00 0.0000000e+00 
2.0000000e+00 0.0000000e+00 0.0000000e+00 
2.0999999e+00 0.0000000e+00 0.0000000e+00 
2.2000000e+00 0.0000000e+00 0.0000000e+00 
2.3000000e+00 0.0000000e+00 0.0000000e+00 
2.4000001e+00 0.0000000e+00 0.0000000e+00 
2.5000000e+00 0.0000000e+00 0.0000000e+00 
2.5999999e+00 0.0000000e+00 0.0000000e+00 
2.7000000e+00 0.0000000e+00 0.0000000e+00 
2.8000000e+00 0.0000000e+00 0.0000000e+00 
2.9000001e+00 0.0000000e+00 0.0000000e+00 
3.0000000e+00 0.0000000e+00 0.0000000e+00 
3.0999999e+00 0.0000000e+00 0.0000000e+00 
3.2000000e+00 0.0000000e+00 0.0000000e+00 
3.3000000e+00 0.0000000e+00 0.0000000e+00 
3.4000001e+00 0.0000000e+00 0.0000000e+00 
3.5000000e+00 0.0000000e+00 0.0000000e+00 
3.5999999e+00 0.0000000e+00 0.0000000e+00 
3.7000000e+00 0.0000000e+00 0.0000000e+00 
3.8000000e+00 0.0000000e+00 0.0000000e+00 
3.9000001e+00 0.0000000e+00 0.0000000e+00 
4.0000000e+00 0.0000000e+00 0.0000000e+00 
4.0999999e+00 0.0000000e+00 0.0000000e+00 
4.1999998e+00 0.0000000e+00 0.0000000e+00 
4.3000002e+00 0.0000000e+00 0.0000000e+00 
4.4000001e+00 0.0000000e+00 0.0000000e+00 
4.5000000e+00 0.0000000e+00 0.0000000e+00 
4.5999999e+00 0.0000000e+00 0.0000000e+00 
4.6999998e+00 0.0000000e+00 0.0000000e+00 
4.8000002e+00 0.0000000e+00 0.0000000e+00 
4.9000001e+00 0.0000000e+00 0.0000000e+00 
5.0000000e+00 0.0000000e+00 0.0000000e+00 
5.0999999e+00 0.0000000e+00 0.0000000e+00 
5.1999998e+00 0.0000000e+00 0.0000000e+00 
5.3000002e+00 0.0000000e+00 0.0000000e+00 
5.4000001e+00 0.0000000e+00 0.0000000e+00 
5.5000000e+00 0.0000000e+00 0.0000000e+00 
5.5999999e+00 0.0000000e+00 0.0000000e+00 
5.6999998e+00 0.0000000e+00 0.0000000e+00 
5.8000002e+00 0.0000000e+00 0.0000000e+00 
5.9000001e+00 0.0000000e+00 0.0000000e+00 
6.0000000e+00 0.0000000e+00 0.0000000e+00 
6.0999999e+00 0.0000000e+00 0.0000000e+00 
6.1999998e+00 0.0000000e+00 0.0000000e+00 
6.3000002e+00 0.0000000e+00 0.0000000e+00 
6.4000001e+00 0.0000000e+00 0.0000000e+00 
6.5000000e+00 0.0000000e+00 0.0000000e+00 
6.5999999e+00 0.0000000e+00 0.0000000e+00 
6.6999998e+00 0.0000000e+00 0.0000000e+00 
6.8000002e+00 0.0000000e+00 0.0000000e+00 
6.9000001e+00 0.0000000e+00 0.0000000e+00 
7.0000000e+00 0.0000000e+00 0.0000000e+00 
7.0999999e+00 0.0000000e+00 0.0000000e+00 
7.1999998e+00 0.0000000e+00 0.0000000e+00 
7.3000002e+00 0.0000000e+00 0.0000000e+00 
7.4000001e+00 0.0000000e+00 0.0000000e+00 
7.5000000e+00 0.0000000e+00 0.0000000e+00 
7.5999999e+00 0.0000000e+00 0.0000000e+00 
7.6999998e+00 0.0000000e+00 0.0000000e+00 
7.8000002e+00 0.0000000e+00 0.0000000e+00 
7.9000001e+00 0.0000000e+00 0.0000000e+00 
8.0000000e+00 0.0000000e+00 0.0000000e+00 
8.1000004e+00 0.0000000e+00 0.0000000e+00 
8.1999998e+00 0.0000000e+00 0.0000000e+00 
8.3000002e+00 0.0000000e+00 0.0000000e+00 
8.3999996e+00 0.0000000e+00 0.0000000e+00 
8.5000000e+00 0.0000000e+00 0.0000000e+00 
8.6000004e+00 0.0000000e+00 0.0000000e+00 
8.6999998e+00 0.0000000e+00 0.0000000e+00 
8.8000002e+00 0.0000000e+00 0.0000000e+00 
8.8999996e+00 0.0000000e+00 0.0000000e+00 
9.0000000e+00 0.0000000e+00 0.0000000e+00 
9.1000004e+00 0.0000000e+00 0.0000000e+00 
9.1999998e+00 0.0000000e+00 0.0000000e+00 
9.3000002e+00 0.0000000e+00 0.0000000e+00 
9.3999996e+00 0.0000000e+00 0.0000000e+00 
9.5000000e+00 0.0000000e+00 0.0000000e+00 
9.6000004e+00 0.0000000e+00 0.0000000e+00 
9.6999998e+00 0.0000000e+00 0.0000000e+00 
9.8000002e+00 0.0000000e+00 0.0000000e+00 
9.8999996e+00 0.0000000e+00 0.0000000e+00 
1.0000000e+01 0.0000000e+00 0.0000000e+00 
1.0100000e+01 0.0000000e+00 0.0000000e+00 
1.0200000e+01 0.0000000e+00 0.0000000e+00 
1.0300000e+01 0.0000000e+00 0.0000000e+00 
1.0400000e+01 0.0000000e+00 0.0000000e+00 
1.0500000e+01 0.0000000e+00 0.0000000e+00 
1.0600000e+01 0.0000000e+00 0.0000000e+00 
1.0700000e+01 0.0000000e+00 0.0000000e+00 
1.0800000e+01 0.0000000e+00 0.0000000e+00 
1.0900000e+01 0.0000000e+00 0.0000000e+00 
1.1000000e+01 0.0000000e+00 0.0000000e+00 
1.1100000e+01 0.0000000e+00 0.0000000e+00 
1.1200000e+01 0.0000000e+00 0.0000000e+00 
1.1300000e+01 0.0000000e+00 0.0000000e+00 
1.1400000e+01 0.0000000e+00 0.0000000e+00 
1.1500000e+01 0.0000000e+00 0.0000000e+00 
1.1600000e+01 0.0000000e+00 0.0000000e+00 
1.1700000e+01 0.0000000e+00 0.0000000e+00 
1.1800000e+01 0.0000000e+00 0.0000000e+00 
1.1900000e+01 0.0000000e+00 0.0000000e+00 
1.2000000e+01 0.0000000e+00 0.0000000e+00 
1.2100000e+01 0.0000000e+00 0.0000000e+00 
1.2200000e+01 0.0000000e+00 0.0000000e+00 
1.2300000e+01 0.0000000e+00 0.0000000e+00 
1.2400000e+01 0.0000000e+00 0.0000000e+00 
1.2500000e+01 0.0000000e+00 0.0000000e+00 
1.2600000e+01 0.0000000e+00 0.0000000e+00 
1.2700000e+01 0.0000000e+00 0.0000000e+00 
1.2800000e+01 0.0000000e+00 0.0000000e+00 
1.2900000e+01 0.0000000e+00 0.0000000e+00 
1.3000000e+01 0.0000000e+00 0.0000000e+00 
1.3100000e+01 0.0000000e+00 0.0000000e+00 
1.3200000e+01 0.0000000e+00 0.0000000e+00 
1.3300000e+01 0.0000000e+00 0.0000000e+00 
1.3400000e+01 0.0000000e+00 0.0000000e+00 
1.3500000e+01 0.0000000e+00 0.0000000e+00 
1.3600000e+01 0.0000000e+00 0.0000000e+00 
1.3700000e+01 0.0000000e+00 0.0000000e+00 
1.3800000e+01 0.0000000e+00 0.0000000e+00 
1.3900000e+01 0.0000000e+00 0.0000000e+00 
1.4000000e+01 0.0000000e+00 0.0000000e+00 
1.4100000e+01 0.0000000e+00 0.0000000e+00 
1.4200000e+01 0.0000000e+00 0.0000000e+00 
1.4300000e+01 0.0000000e+00 0.0000000e+00 
1.4400000e+01 0.0000000e+00 0.0000000e+00 
1.4500000e+01 0.0000000e+00 0.0000000e+00 
1.4600000e+01 0.0000000e+00 0.0000000e+00 
1.4700000e+01 0.0000000e+00 0.0000000e+00 
1.4800000e+01 0.0000000e+00 0.0000000e+00 
1.4900000e+01 0.0000000e+00 0.0000000e+00 
1.5000000e+01 0.0000000e+00 0.0000000e+00 
1.5100000e+01 0.0000000e+00 0.0000000e+00 
1.5200000e+01 0.0000000e+00 0.0000000e+00 
1.5300000e+01 0.0000000e+00 0.0000000e+00 
1.5400000e+01 0.0000000e+00 0.0000000e+00 
1.5500000e+01 0.0000000e+00 0.0000000e+00 
1.5600000e+01 0.0000000e+00 0.0000000e+00 
1.5700000e+01 0.0000000e+00 0.0000000e+00 
1.5800000e+01 0.0000000e+00 0.0000000e+00 
1.5900000e+01 0.0000000e+00 0.0000000e+00 
1.6000000e+01 0.0000000e+00 0.0000000e+00 
1.6100000e+01 0.0000000e+00 0.0000000e+00 
1.6200001e+01 0.0000000e+00 0.0000000e+00 
1.6299999e+01 0.0000000e+00 0.0000000e+00 
1.6400000e+01 0.0000000e+00 0.0000000e+00 
1.6500000e+01 0.0000000e+00 0.0000000e+00 
1.6600000e+01 0.0000000e+00 0.0000000e+00 
1.6700001e+01 0.0000000e+00 0.0000000e+00 
1.6799999e+01 0.0000000e+00 0.0000000e+00 
1.6900000e+01 0.0000000e+00 0.0000000e+00 
1.7000000e+01 0.0000000e+00 0.0000000e+00 
1.7100000e+01 0.0000000e+00 0.0000000e+00 
1.7200001e+01 0.0000000e+00 0.0000000e+00 
1.7299999e+01 0.0000000e+00 0.0000000e+00 
1.7400000e+01 0.0000000e+00 0.0000000e+00 
1.7500000e+01 0.0000000e+00 0.0000000e+00 
1.7600000e+01 0.0000000e+00 0.0000000e+00 
1.7700001e+01 0.0000000e+00 0.0000000e+00 
1.7799999e+01 0.0000000e+00 0.0000000e+00 
1.7900000e+01 0.0000000e+00 0.0000000e+00 
1.8000000e+01 0.0000000e+00 0.0000000e+00 
1.8100000e+01 0.0000000e+00 0.0000000e+00 
1.8200001e+01 0.0000000e+00 0.0000000e+00 
1.8299999e+01 0.0000000e+00 0.0000000e+00 
1.8400000e+01 0.0000000e+00 0.0000000e+00 
1.8500000e+01 0.0000000e+00 0.0000000e+00 
1.8600000e+01 0.0000000e+00 0.0000000e+00 
1.8700001e+01 0.0000000e+00 0.0000000e+00 
1.8799999e+01 0.0000000e+00 0.0000000e+00 
1.8900000e+01 0.0000000e+00 0.0000000e+00 
1.9000000e+01 0.0000000e+00 0.0000000e+00 
1.9100000e+01 0.0000000e+00 0.0000000e+00 
1.9200001e+01 0.0000000e+00 0.0000000e+00 
1.9299999e+01 0.0000000e+00 0.0000000e+00 
1.9400000e+01 0.0000000e+00 0.0000000e+00 
1.9500000e+01 0.0000000e+00 0.0000000e+00 
1.9600000e+01 0.0000000e+00 0.0000000e+00 
1.9700001e+01 0.0000000e+00 0.0000000e+00 
1.9799999e+01 0.0000000e+00 0.0000000e+00 
1.9900000e+01 0.0000000e+00 0.0000000e+00 
2.0000000e+01 0.0000000e+00 0.0000000e+00 
2.0100000e+01 0.0000000e+00 0.0000000e+00 
2.0200001e+01 0.0000000e+00 0.0000000e+00 
2.0299999e+01 0.0000000e+00 0.0000000e+00 
2.0400000e+01 0.0000000e+00 0.0000000e+00 
2.0500000e+01 0.0000000e+00 0.0000000e+00 
2.0600000e+01 0.0000000e+00 0.0000000e+00 
2.0700001e+01 0.0000000e+00 0.0000000e+00 
2.0799999e+01 0.0000000e+00 0.0000000e+00 
2.0900000e+01 0.0000000e+00 0.0000000e+00 
2.1000000e+01 0.0000000e+00 0.0000000e+00 
2.1100000e+01 0.0000000e+00 0.0000000e+00 
2.1200001e+01 0.0000000e+00 0.0000000e+00 
2.1299999e+01 0.0000000e+00 0.0000000e+00 
2.1400000e+01 0.0000000e+00 0.0000000e+00 
2.1500000e+01 0.0000000e+00 0.0000000e+00 
2.1600000e+01 0.0000000e+00 0.0000000e+00 
2.1700001e+01 0.0000000e+00 0.0000000e+00 
2.1799999e+01 0.0000000e+00 0.0000000e+00 
2.1900000e+01 0.0000000e+00 0.0000000e+00 
2.2000000e+01 0.0000000e+00 0.0000000e+00 
2.2100000e+01 0.0000000e+00 0.0000000e+00 
2.2200001e+01 0.0000000e+00 0.0000000e+00 
2.2299999e+01 0.0000000e+00 0.0000000e+00 
2.2400000e+01 0.0000000e+00 0.0000000e+00 
2.2500000e+01 0.0000000e+00 0.0000000e+00 
2.2600000e+01 0.0000000e+00 0.0000000e+00 
2.2700001e+01 0.0000000e+00 0.0000000e+00 
2.2799999e+01 0.0000000e+00 0.0000000e+00 
2.2900000e+01 0.0000000e+00 0.0000000e+00 
2.3000000e+01 0.0000000e+00 0.0000000e+00 
2.3100000e+01 0.0000000e+00 0.0000000e+00 
2.3200001e+01 0.0000000e+00 0.0000000e+00 
2.3299999e+01 0.0000000e+00 0.0000000e+00 
2.3400000e+01 0.0000000e+00 0.0000000e+00 
2.3500000e+01 0.0000000e+00 0.0000000e+00 
2.3600000e+01 0.0000000e+00 0.0000000e+00 
2.3700001e+01 0.0000000e+00 0.0000000e+00 
2.3799999e+01 0.0000000e+00 0.0000000e+00 
2.3900000e+01 0.0000000e+00 0.0000000e+00 
2.4000000e+01 0.0000000e+00 0.0000000e+00 
2.4100000e+01 0.0000000e+00 0.0000000e+00 
2.4200001e+01 0.0000000e+00 0.0000000e+00 
2.4299999e+01 0.0000000e+00 0.0000000e+00 
2.4400000e+01 0.0000000e+00 0.0000000e+00 
2.4500000e+01 0.0000000e+00 0.0000000e+00 
2.4600000e+01 0.0000000e+00 0.0000000e+00 
2.4700001e+01 0.0000000e+00 0.0000000e+00 
2.4799999e+01 0.0000000e+00 0.0000000e+00 
2.4900000e+01 0.0000000e+00 0.0000000e+00 

CELLS 250 750
2 0 2
2 2 3
2 3 4
2 4 5
2 5 6
2 6 7
2 7 8
2 8 9
2 9 10
2 10 11
2 11 12
2 12 13
2 13 14
2 14 15
2 15 16
2 16 17
2 17 18
2 18 19
2 19 20
2 20 21
2 21 22
2 22 23
2 23 24
2 24 25
2 25 26
2 26 27
2 27 28
2 28 29
2 29 30
2 30 31
2 31 32
2 32 33
2 33 34
2 34 35
2 35 36
2 36 37
2 37 38
2 38 39
2 39 40
2 40 41
2 41 42
2 42 43
2 43 44
2 44 45
2 45 46
2 46 47
2 47 48
2 48 49
2 49 50
2 50 51
2 51 52
2 52 53
2 53 54
2 54 55
2 55 56
2 56 57
2 57 58
2 58 59
2 59 60
2 60 61
2 61 62
2 62 63
2 63 64
2 64 65
2 65 66
2 66 67
2 67 68
2 68 69
2 69 70
2 70 71
2 71 72
2 72 73
2 73 74
2 74 75
2 75 76
2 76 77
2 77 78
2 78 79
2 79 80
2 80 81
2 81 82
2 82 83
2 83 84
2 84 85
2 85 86
2 86 87
2 87 88
2 88 89
2 89 90
2 90 91
2 91 92
2 92 93
2 93 94
2 94 95
2 95 96
2 96 97
2 97 98
2 98 99
2 99 100
2 100 101
2 101 102
2 102 103
2 103 104
2 104 105
2 105 106
2 106 107
2 107 108
2 108 109
2 109 110
2 110 111
2 111 112
2 112 113
2 113 114
2 114 115
2 115 116
2 116 117
2 117 118
2 118 119
2 119 120
2 120 121
2 121 122
2 122 123
2 123 124
2 124 125
2 125 126
2 126 127
2 127 128
2 128 129
2 129 130
2 130 131
2 131 132
2 132 133
2 133 134
2 134 135
2 135 136
2 136 137
2 137 138
2 138 139
2 139 140
2 140 141
2 141 142
2 142 143
2 143 144
2 144 145
2 145 146
2 146 147
2 147 148
2 148 149
2 149 150
2 150 151
2 151 152
2 152 153
2 153 154
2 154 155
2 155 156
2 156 157
2 157 158
2 158 159
2 159 160
2 160 161
2 161 162
2 162 163
2 163 164
2 164 165
2 165 166
2 166 167
2 167 168
2 168 169
2 169 170
2 170 171
2 171 172
2 172 173
2 173 174
2 174 175
2 175 176
2 176 177
2 177 178
2 178 179
2 179 180
2 180 181
2 181 182
2 182 183
2 183 184
2 184 185
2 185 186
2 186 187
2 187 188
2 188 189
2 189 190
2 190 191
2 191 192
2 192 193
2 193 194
2 194 195
2 195 196
2 196 197
2 197 198
2 198 199
2 199 200
2 200 201
2 201 202
2 202 203
2 203 204
2 204 205
2 205 206
2 206 207
2 207 208
2 208 209
2 209 210
2 210 211
2 211 212
2 212 213
2 213 214
2 214 215
2 215 216
2 216 217
2 217 218
2 218 219
2 219 220
2 220 221
2 221 222
2 222 223
2 223 224
2 224 225
2 225 226
2 226 227
2 227 228
2 228 229
2 229 230
2 230 231
2 231 232
2 232 233
2 233 234
2 234 235
2 235 236
2 236 237
2 237 238
2 238 239
2 239 240
2 240 241
2 241 242
2 242 243
2 243 244
2 244 245
2 245 246
2 246 247
2 247 248
2 248 249
2 249 250
2 250 1

CELL_TYPES 250
3
3
3
3
3
3
3
3
3
3
3
3
3
3
3
3
3
3
3
3
3
3
3
3
3
3
3
3
3
3
3
3
3
3
3
3
3
3
3
3
3
3
3
3
3
3
3
3
3
3
3
3
3
3
3
3
3
3
3
3
3
3
3
3
3
3
3
3
3
3
3
3
3
3
3
3
3
3
3
3
3
3
3
3
3
3
3
3
3
3
3
3
3
3
3
3
3
3
3
3
3
3
3
3
3
3
3
3
3
3
3
3
3
3
3
3
3
3
3
3
3
3
3
3
3
3
3
3
3
3
3
3
3
3
3
3
3
3
3
3
3
3
3
3
3
3
3
3
3
3
3
3
3
3
3
3
3
3
3
3
3
3
3
3
3
3
3
3
3
3
3
3
3
3
3
3
3
3
3
3
3
3
3
3
3
3
3
3
3
3
3
3
3
3
3
3
3
3
3
3
3
3
3
3
3
3
3
3
3
3
3
3
3
3
3
3
3
3
3
3
3
3
3
3
3
3
3
3
3
3
3
3
3
3
3
3
3
3
3
3
3
3
3
3
3
3
3
3
3
3
POINT_DATA 251
FIELD FieldData 1
DISPLACEMENT 3 251  float
0.0000000e+00 0.0000000e+00 0.0000000e+00 
0.0000000e+00 0.0000000e+00 0.0000000e+00 
0.0000000e+00 -1.1769626e-04 0.0000000e+00 
0.0000000e+00 -2.3538139e-04 0.0000000e+00 
0.0000000e+00 -3.5304422e-04 0.0000000e+00 
0.0000000e+00 -4.7067364e-04 0.0000000e+00 
0.0000000e+00 -5.8825850e-04 0.0000000e+00 
0.0000000e+00 -7.0578762e-04 0.0000000e+00 
0.0000000e+00 -8.2324987e-04 0.0000000e+00 
0.0000000e+00 -9.4063417e-04 0.0000000e+00 
0.0000000e+00 -1.0579294e-03 0.0000000e+00 
0.0000000e+00 -1.1751242e-03 0.0000000e+00 
0.0000000e+00 -1.2922076e-03 0.0000000e+00 
0.0000000e+00 -1.4091685e-03 0.0000000e+00 
0.0000000e+00 -1.5259956e-03 0.0000000e+00 
0.0000000e+00 -1.6426778e-03 0.0000000e+00 
0.0000000e+00 -1.7592040e-03 0.0000000e+00 
0.0000000e+00 -1.8755631e-03 0.0000000e+00 
0.0000000e+00 -1.9917437e-03 0.0000000e+00 
0.0000000e+00 -2.1077350e-03 0.0000000e+00 
0.0000000e+00 -2.2235254e-03 0.0000000e+00 
0.0000000e+00 -2.3391042e-03 0.0000000e+00 
0.0000000e+00 -2.4544601e-03 0.0000000e+00 
0.0000000e+00 -2.5695818e-03 0.0000000e+00 
0.0000000e+00 -2.6844582e-03 0.0000000e+00 
0.0000000e+00 -2.7990781e-03 0.0000000e+00 
0.0000000e+00 -2.9134306e-03 0.0000000e+00 
0.0000000e+00 -3.0275041e-03 0.0000000e+00 
0.0000000e+00 -3.1412877e-03 0.0000000e+00 
0.0000000e+00 -3.2547703e-03 0.0000000e+00 
0.0000000e+00 -3.3679404e-03 0.0000000e+00 
0.0000000e+00 -3.4807872e-03 0.0000000e+00 
0.0000000e+00 -3.5932993e-03 0.0000000e+00 
0.0000000e+00 -3.7054655e-03 0.0000000e+00 
0.0000000e+00 -3.8172747e-03 0.0000000e+00 
0.0000000e+00 -3.9287158e-03 0.0000000e+00 
0.0000000e+00 -4.0397774e-03 0.0000000e+00 
0.0000000e+00 -4.1504484e-03 0.0000000e+00 
0.0000000e+00 -4.2607174e-03 0.0000000e+00 
0.0000000e+00 -4.3705734e-03 0.0000000e+00 
0.0000000e+00 -4.4800052e-03 0.0000000e+00 
0.0000000e+00 -4.5890016e-03 0.0000000e+00 
0.0000000e+00 -4.6975515e-03 0.0000000e+00 
0.0000000e+00 -4.8056436e-03 0.0000000e+00 
0.0000000e+00 -4.9132663e-03 0.0000000e+00 
0.0000000e+00 -5.0204089e-03 0.0000000e+00 
0.0000000e+00 -5.1270602e-03 0.0000000e+00 
0.0000000e+00 -5.2332086e-03 0.0000000e+00 
0.0000000e+00 -5.3388430e-03 0.0000000e+00 
0.0000000e+00 -5.4439520e-03 0.0000000e+00 
0.0000000e+00 -5.5485247e-03 0.0000000e+00 
0.0000000e+00 -5.6525492e-03 0.0000000e+00 
0.0000000e+00 -5.7560154e-03 0.0000000e+00 
0.0000000e+00 -5.8589112e-03 0.0000000e+00 
0.0000000e+00 -5.9612254e-03 0.0000000e+00 
0.0000000e+00 -6.0629467e-03 0.0000000e+00 
0.0000000e+00 -6.1640642e-03 0.0000000e+00 
0.0000000e+00 -6.2645664e-03 0.0000000e+00 
0.0000000e+00 -6.3644419e-03 0.0000000e+00 
0.0000000e+00 -6.4636795e-03 0.0000000e+00 
0.0000000e+00 -6.5622679e-03 0.0000000e+00 
0.0000000e+00 -6.6601960e-03 0.0000000e+00 
0.0000000e+00 -6.7574522e-03 0.0000000e+00 
0.0000000e+00 -6.8540256e-03 0.0000000e+00 
0.0000000e+00 -6.9499044e-03 0.0000000e+00 
0.0000000e+00 -7.0450776e-03 0.0000000e+00 
0.0000000e+00 -7.1395338e-03 0.0000000e+00 
0.0000000e+00 -7.2332611e-03 0.0000000e+00 
0.0000000e+00 -7.3262495e-03 0.0000000e+00 
0.0000000e+00 -7.4184863e-03 0.0000000e+00 
0.0000000e+00 -7.5099613e-03 0.0000000e+00 
0.0000000e+00 -7.6006623e-03 0.0000000e+00 
0.0000000e+00 -7.6905782e-03 0.0000000e+00 
0.0000000e+00 -7.7796974e-03 0.0000000e+00 
0.0000000e+00 -7.8680096e-03 0.0000000e+00 
0.0000000e+00 -7.9555018e-03 0.0000000e+00 
0.0000000e+00 -8.0421632e-03 0.0000000e+00 
0.0000000e+00 -8.1279837e-03 0.0000000e+00 
0.0000000e+00 -8.2129501e-03 0.0000000e+00 
0.0000000e+00 -8.2970513e-03 0.0000000e+00 
0.0000000e+00 -8.3802771e-03 0.0000000e+00 
0.0000000e+00 -8.4626153e-03 0.0000000e+00 
0.0000000e+00 -8.5440539e-03 0.0000000e+00 
0.0000000e+00 -8.6245826e-03 0.0000000e+00 
0.0000000e+00 -8.7041892e-03 0.0000000e+00 
0.0000000e+00 -8.7828627e-03 0.0000000e+00 
0.0000000e+00 -8.8605909e-03 0.0000000e+00 
0.0000000e+00 -8.9373635e-03 0.0000000e+00 
0.0000000e+00 -9.0131676e-03 0.0000000e+00 
0.0000000e+00 -9.0879928e-03 0.0000000e+00 
0.0000000e+00 -9.1618272e-03 0.0000000e+00 
0.0000000e+00 -9.2346603e-03 0.0000000e+00 
0.0000000e+00 -9.3064783e-03 0.0000000e+00 
0.0000000e+00 -9.3772719e-03 0.0000000e+00 
0.0000000e+00 -9.4470289e-03 0.0000000e+00 
0.0000000e+00 -9.5157372e-03 0.0000000e+00 
0.0000000e+00 -9.5833866e-03 0.0000000e+00 
0.0000000e+00 -9.6499640e-03 0.0000000e+00 
0.0000000e+00 -9.7154584e-03 0.0000000e+00 
0.0000000e+00 -9.7798584e-03 0.0000000e+00 
0.0000000e+00 -9.8431529e-03 0.0000000e+00 
0.0000000e+00 -9.9053299e-03 0.0000000e+00 
0.0000000e+00 -9.9663772e-03 0.0000000e+00 
0.0000000e+00 -1.0026284e-02 0.0000000e+00 
0.0000000e+00 -1.0085038e-02 0.0000000e+00 
0.0000000e+00 -1.0142629e-02 0.0000000e+00 
0.0000000e+00 -1.0199044e-02 0.0000000e+00 
0.0000000e+00 -1.0254271e-02 0.0000000e+00 
0.0000000e+00 -1.0308300e-02 0.0000000e+00 
0.0000000e+00 -1.0361119e-02 0.0000000e+00 
0.0000000e+00 -1.0412715e-02 0.0000000e+00 
0.0000000e+00 -1.0463078e-02 0.0000000e+00 
0.0000000e+00 -1.0512195e-02 0.0000000e+00 
0.0000000e+00 -1.0560054e-02 0.0000000e+00 
0.0000000e+00 -1.0606646e-02 0.0000000e+00 
0.0000000e+00 -1.0651956e-02 0.0000000e+00 
0.0000000e+00 -1.0695974e-02 0.0000000e+00 
0.0000000e+00 -1.0738689e-02 0.0000000e+00 
0.0000000e+00 -1.0780087e-02 0.0000000e+00 
0.0000000e+00 -1.0820158e-02 0.0000000e+00 
0.0000000e+00 -1.0858890e-02 0.0000000e+00 
0.0000000e+00 -1.0896270e-02 0.0000000e+00 
0.0000000e+00 -1.0932283e-02 0.0000000e+00 
0.0000000e+00 -1.0966904e-02 0.0000000e+00 
0.0000000e+00 -1.1000117e-02 0.0000000e+00 
0.0000000e+00 -1.1031905e-02 0.0000000e+00 
0.0000000e+00 -1.1062256e-02 0.0000000e+00 
0.0000000e+00 -1.1091159e-02 0.0000000e+00 
0.0000000e+00 -1.1118600e-02 0.0000000e+00 
0.0000000e+00 -1.1144570e-02 0.0000000e+00 
0.0000000e+00 -1.1169056e-02 0.0000000e+00 
0.0000000e+00 -1.1192046e-02 0.0000000e+00 
0.0000000e+00 -1.1213528e-02 0.0000000e+00 
0.0000000e+00 -1.1233491e-02 0.0000000e+00 
0.0000000e+00 -1.1251922e-02 0.0000000e+00 
0.0000000e+00 -1.1268809e-02 0.0000000e+00 
0.0000000e+00 -1.1284141e-02 0.0000000e+00 
0.0000000e+00 -1.1297906e-02 0.0000000e+00 
0.0000000e+00 -1.1310091e-02 0.0000000e+00 
0.0000000e+00 -1.1320686e-02 0.0000000e+00 
0.0000000e+00 -1.1329677e-02 0.0000000e+00 
0.0000000e+00 -1.1337053e-02 0.0000000e+00 
0.0000000e+00 -1.1342802e-02 0.0000000e+00 
0.0000000e+00 -1.1346912e-02 0.0000000e+00 
0.0000000e+00 -1.1349372e-02 0.0000000e+00 
0.0000000e+00 -1.1350168e-02 0.0000000e+00 
0.0000000e+00 -1.1349289e-02 0.0000000e+00 
0.0000000e+00 -1.1346724e-02 0.0000000e+00 
0.0000000e+00 -1.1342459e-02 0.0000000e+00 
0.0000000e+00 -1.1336483e-02 0.0000000e+00 
0.0000000e+00 -1.1328785e-02 0.0000000e+00 
0.0000000e+00 -1.1319351e-02 0.0000000e+00 
0.0000000e+00 -1.1308171e-02 0.0000000e+00 
0.0000000e+00 -1.1295231e-02 0.0000000e+00 
0.0000000e+00 -1.1280521e-02 0.0000000e+00 
0.0000000e+00 -1.1264026e-02 0.0000000e+00 
0.0000000e+00 -1.1245738e-02 0.0000000e+00 
0.0000000e+00 -1.1225641e-02 0.0000000e+00 
0.0000000e+00 -1.1203725e-02 0.0000000e+00 
0.0000000e+00 -1.1179978e-02 0.0000000e+00 
0.0000000e+00 -1.1154387e-02 0.0000000e+00 
0.0000000e+00 -1.1126940e-02 0.0000000e+00 
0.0000000e+00 -1.1097626e-02 0.0000000e+00 
0.0000000e+00 -1.1066432e-02 0.0000000e+00 
0.0000000e+00 -1.1033346e-02 0.0000000e+00 
0.0000000e+00 -1.0998356e-02 0.0000000e+00 
0.0000000e+00 -1.0961451e-02 0.0000000e+00 
0.0000000e+00 -1.0922616e-02 0.0000000e+00 
0.0000000e+00 -1.0881841e-02 0.0000000e+00 
0.0000000e+00 -1.0839114e-02 0.0000000e+00 
0.0000000e+00 -1.0794422e-02 0.0000000e+00 
0.0000000e+00 -1.0747753e-02 0.0000000e+00 
0.0000000e+00 -1.0699095e-02 0.0000000e+00 
0.0000000e+00 -1.0648437e-02 0.0000000e+00 
0.0000000e+00 -1.0595765e-02 0.0000000e+00 
0.0000000e+00 -1.0541067e-02 0.0000000e+00 
0.0000000e+00 -1.0484332e-02 0.0000000e+00 
0.0000000e+00 -1.0425547e-02 0.0000000e+00 
0.0000000e+00 -1.0364701e-02 0.0000000e+00 
0.0000000e+00 -1.0301780e-02 0.0000000e+00 
0.0000000e+00 -1.0236774e-02 0.0000000e+00 
0.0000000e+00 -1.0169668e-02 0.0000000e+00 
0.0000000e+00 -1.0100452e-02 0.0000000e+00 
0.0000000e+00 -1.0029114e-02 0.0000000e+00 
0.0000000e+00 -9.9556400e-03 0.0000000e+00 
0.0000000e+00 -9.8800194e-03 0.0000000e+00 
0.0000000e+00 -9.8022390e-03 0.0000000e+00 
0.0000000e+00 -9.7222878e-03 0.0000000e+00 
0.0000000e+00 -9.6401526e-03 0.0000000e+00 
0.0000000e+00 -9.5558222e-03 0.0000000e+00 
0.0000000e+00 -9.4692828e-03 0.0000000e+00 
0.0000000e+00 -9.3805231e-03 0.0000000e+00 
0.0000000e+00 -9.2895310e-03 0.0000000e+00 
0.0000000e+00 -9.1962945e-03 0.0000000e+00 
0.0000000e+00 -9.1008013e-03 0.0000000e+00 
0.0000000e+00 -9.0030385e-03 0.0000000e+00 
0.0000000e+00 -8.9029940e-03 0.0000000e+00 
0.0000000e+00 -8.8006565e-03 0.0000000e+00 
0.0000000e+00 -8.6960122e-03 0.0000000e+00 
0.0000000e+00 -8.5890517e-03 0.0000000e+00 
0.0000000e+00 -8.4797610e-03 0.0000000e+00 
0.0000000e+00 -8.3681280e-03 0.0000000e+00 
0.0000000e+00 -8.2541388e-03 0.0000000e+00 
0.0000000e+00 -8.1377821e-03 0.0000000e+00 
0.0000000e+00 -8.0190487e-03 0.0000000e+00 
0.0000000e+00 -7.8979246e-03 0.0000000e+00 
0.0000000e+00 -7.7743977e-03 0.0000000e+00 
0.0000000e+00 -7.6484527e-03 0.0000000e+00 
0.0000000e+00 -7.5200778e-03 0.0000000e+00 
0.0000000e+00 -7.3892637e-03 0.0000000e+00 
0.0000000e+00 -7.2560017e-03 0.0000000e+00 
0.0000000e+00 -7.1202768e-03 0.0000000e+00 
0.0000000e+00 -6.9820727e-03 0.0000000e+00 
0.0000000e+00 -6.8413741e-03 0.0000000e+00 
0.0000000e+00 -6.6981725e-03 0.0000000e+00 
0.0000000e+00 -6.5524629e-03 0.0000000e+00 
0.0000000e+00 -6.4042369e-03 0.0000000e+00 
0.0000000e+00 -6.2534730e-03 0.0000000e+00 
0.0000000e+00 -6.1001489e-03 0.0000000e+00 
0.0000000e+00 -5.9442515e-03 0.0000000e+00 
0.0000000e+00 -5.7857833e-03 0.0000000e+00 
0.0000000e+00 -5.6247506e-03 0.0000000e+00 
0.0000000e+00 -5.4612006e-03 0.0000000e+00 
0.0000000e+00 -5.2952156e-03 0.0000000e+00 
0.0000000e+00 -5.1268800e-03 0.0000000e+00 
0.0000000e+00 -4.9562780e-03 0.0000000e+00 
0.0000000e+00 -4.7834930e-03 0.0000000e+00 
0.0000000e+00 -4.6086092e-03 0.0000000e+00 
0.0000000e+00 -4.4317101e-03 0.0000000e+00 
0.0000000e+00 -4.2528803e-03 0.0000000e+00 
0.0000000e+00 -4.0722038e-03 0.0000000e+00 
0.0000000e+00 -3.8897635e-03 0.0000000e+00 
0.0000000e+00 -3.7056445e-03 0.0000000e+00 
0.0000000e+00 -3.5199302e-03 0.0000000e+00 
0.0000000e+00 -3.3327045e-03 0.0000000e+00 
0.0000000e+00 -3.1440516e-03 0.0000000e+00 
0.0000000e+00 -2.9540553e-03 0.0000000e+00 
0.0000000e+00 -2.7627996e-03 0.0000000e+00 
0.0000000e+00 -2.5703686e-03 0.0000000e+00 
0.0000000e+00 -2.3768460e-03 0.0000000e+00 
0.0000000e+00 -2.1823158e-03 0.0000000e+00 
0.0000000e+00 -1.9868622e-03 0.0000000e+00 
0.0000000e+00 -1.7905689e-03 0.0000000e+00 
0.0000000e+00 -1.5935199e-03 0.0000000e+00 
0.0000000e+00 -1.3957992e-03 0.0000000e+00 
0.0000000e+00 -1.1974908e-03 0.0000000e+00 
0.0000000e+00 -9.9867873e-04 0.0000000e+00 
0.0000000e+00 -7.9944677e-04 0.0000000e+00 
0.0000000e+00 -5.9987896e-04 0.0000000e+00 
0.0000000e+00 -4.0005922e-04 0.0000000e+00 
0.0000000e+00 -2.0007159e-04 0.0000000e+00 
CELL_DATA 250
FIELD FieldData 0
