# vtk DataFile Version 4.0
vtk output
ASCII
DATASET UNSTRUCTURED_GRID
POINTS 251 float
0.0000000e+00 0.0000000e+00 0.0000000e+00 
2.5000000e+01 0.0000000e+00 0.0000000e+00 
1.0000000e-01 0.0000000e+00 0.0000000e+00 
2.0000000e-01 0.0000000e+00 0.0000000e+00 
3.0000001e-01 0.0000000e+00 0.0000000e+00 
4.0000001e-01 0.0000000e+00 0.0000000e+00 
5.0000000e-01 0.0000000e+00 0.0000000e+00 
6.0000002e-01 0.0000000e+00 0.0000000e+00 
6.9999999e-01 0.0000000e+00 0.0000000e+00 
8.0000001e-01 0.0000000e+00 0.0000000e+00 
8.9999998e-01 0.0000000e+00 0.0000000e+00 
1.0000000e+00 0.0000000e+00 0.0000000e+00 
1.1000000e+00 0.0000000e+00 0.0000000e+00 
1.2000000e+00 0.0000000e+00 0.0000000e+00 
1.3000000e+00 0.0000000e+00 0.0000000e+00 
1.4000000e+00 0.0000000e+00 0.0000000e+00 
1.5000000e+00 0.0000000e+00 0.0000000e+00 
1.6000000e+00 0.0000000e+00 0.0000000e+00 
1.7000000e+00 0.0000000e+00 0.0000000e+00 
1.8000000e+00 0.0000000e+00 0.0000000e+00 
1.9000000e+00 0.0000000e+00 0.0000000e+00 
2.0000000e+00 0.0000000e+00 0.0000000e+00 
2.0999999e+00 0.0000000e+00 0.0000000e+00 
2.2000000e+00 0.0000000e+00 0.0000000e+00 
2.3000000e+00 0.0000000e+00 0.0000000e+00 
2.4000001e+00 0.0000000e+00 0.0000000e+00 
2.5000000e+00 0.0000000e+00 0.0000000e+00 
2.5999999e+00 0.0000000e+00 0.0000000e+00 
2.7000000e+00 0.0000000e+00 0.0000000e+00 
2.8000000e+00 0.0000000e+00 0.0000000e+00 
2.9000001e+00 0.0000000e+00 0.0000000e+00 
3.0000000e+00 0.0000000e+00 0.0000000e+00 
3.0999999e+00 0.0000000e+00 0.0000000e+00 
3.2000000e+00 0.0000000e+00 0.0000000e+00 
3.3000000e+00 0.0000000e+00 0.0000000e+00 
3.4000001e+00 0.0000000e+00 0.0000000e+00 
3.5000000e+00 0.0000000e+00 0.0000000e+00 
3.5999999e+00 0.0000000e+00 0.0000000e+00 
3.7000000e+00 0.0000000e+00 0.0000000e+00 
3.8000000e+00 0.0000000e+00 0.0000000e+00 
3.9000001e+00 0.0000000e+00 0.0000000e+00 
4.0000000e+00 0.0000000e+00 0.0000000e+00 
4.0999999e+00 0.0000000e+00 0.0000000e+00 
4.1999998e+00 0.0000000e+00 0.0000000e+00 
4.3000002e+00 0.0000000e+00 0.0000000e+00 
4.4000001e+00 0.0000000e+00 0.0000000e+00 
4.5000000e+00 0.0000000e+00 0.0000000e+00 
4.5999999e+00 0.0000000e+00 0.0000000e+00 
4.6999998e+00 0.0000000e+00 0.0000000e+00 
4.8000002e+00 0.0000000e+00 0.0000000e+00 
4.9000001e+00 0.0000000e+00 0.0000000e+00 
5.0000000e+00 0.0000000e+00 0.0000000e+00 
5.0999999e+00 0.0000000e+00 0.0000000e+00 
5.1999998e+00 0.0000000e+00 0.0000000e+00 
5.3000002e+00 0.0000000e+00 0.0000000e+00 
5.4000001e+00 0.0000000e+00 0.0000000e+00 
5.5000000e+00 0.0000000e+00 0.0000000e+00 
5.5999999e+00 0.0000000e+00 0.0000000e+00 
5.6999998e+00 0.0000000e+00 0.0000000e+00 
5.8000002e+00 0.0000000e+00 0.0000000e+00 
5.9000001e+00 0.0000000e+00 0.0000000e+00 
6.0000000e+00 0.0000000e+00 0.0000000e+00 
6.0999999e+00 0.0000000e+00 0.0000000e+00 
6.1999998e+00 0.0000000e+00 0.0000000e+00 
6.3000002e+00 0.0000000e+00 0.0000000e+00 
6.4000001e+00 0.0000000e+00 0.0000000e+00 
6.5000000e+00 0.0000000e+00 0.0000000e+00 
6.5999999e+00 0.0000000e+00 0.0000000e+00 
6.6999998e+00 0.0000000e+00 0.0000000e+00 
6.8000002e+00 0.0000000e+00 0.0000000e+00 
6.9000001e+00 0.0000000e+00 0.0000000e+00 
7.0000000e+00 0.0000000e+00 0.0000000e+00 
7.0999999e+00 0.0000000e+00 0.0000000e+00 
7.1999998e+00 0.0000000e+00 0.0000000e+00 
7.3000002e+00 0.0000000e+00 0.0000000e+00 
7.4000001e+00 0.0000000e+00 0.0000000e+00 
7.5000000e+00 0.0000000e+00 0.0000000e+00 
7.5999999e+00 0.0000000e+00 0.0000000e+00 
7.6999998e+00 0.0000000e+00 0.0000000e+00 
7.8000002e+00 0.0000000e+00 0.0000000e+00 
7.9000001e+00 0.0000000e+00 0.0000000e+00 
8.0000000e+00 0.0000000e+00 0.0000000e+00 
8.1000004e+00 0.0000000e+00 0.0000000e+00 
8.1999998e+00 0.0000000e+00 0.0000000e+00 
8.3000002e+00 0.0000000e+00 0.0000000e+00 
8.3999996e+00 0.0000000e+00 0.0000000e+00 
8.5000000e+00 0.0000000e+00 0.0000000e+00 
8.6000004e+00 0.0000000e+00 0.0000000e+00 
8.6999998e+00 0.0000000e+00 0.0000000e+00 
8.8000002e+00 0.0000000e+00 0.0000000e+00 
8.8999996e+00 0.0000000e+00 0.0000000e+00 
9.0000000e+00 0.0000000e+00 0.0000000e+00 
9.1000004e+00 0.0000000e+00 0.0000000e+00 
9.1999998e+00 0.0000000e+00 0.0000000e+00 
9.3000002e+00 0.0000000e+00 0.0000000e+00 
9.3999996e+00 0.0000000e+00 0.0000000e+00 
9.5000000e+00 0.0000000e+00 0.0000000e+00 
9.6000004e+00 0.0000000e+00 0.0000000e+00 
9.6999998e+00 0.0000000e+00 0.0000000e+00 
9.8000002e+00 0.0000000e+00 0.0000000e+00 
9.8999996e+00 0.0000000e+00 0.0000000e+00 
1.0000000e+01 0.0000000e+00 0.0000000e+00 
1.0100000e+01 0.0000000e+00 0.0000000e+00 
1.0200000e+01 0.0000000e+00 0.0000000e+00 
1.0300000e+01 0.0000000e+00 0.0000000e+00 
1.0400000e+01 0.0000000e+00 0.0000000e+00 
1.0500000e+01 0.0000000e+00 0.0000000e+00 
1.0600000e+01 0.0000000e+00 0.0000000e+00 
1.0700000e+01 0.0000000e+00 0.0000000e+00 
1.0800000e+01 0.0000000e+00 0.0000000e+00 
1.0900000e+01 0.0000000e+00 0.0000000e+00 
1.1000000e+01 0.0000000e+00 0.0000000e+00 
1.1100000e+01 0.0000000e+00 0.0000000e+00 
1.1200000e+01 0.0000000e+00 0.0000000e+00 
1.1300000e+01 0.0000000e+00 0.0000000e+00 
1.1400000e+01 0.0000000e+00 0.0000000e+00 
1.1500000e+01 0.0000000e+00 0.0000000e+00 
1.1600000e+01 0.0000000e+00 0.0000000e+00 
1.1700000e+01 0.0000000e+00 0.0000000e+00 
1.1800000e+01 0.0000000e+00 0.0000000e+00 
1.1900000e+01 0.0000000e+00 0.0000000e+00 
1.2000000e+01 0.0000000e+00 0.0000000e+00 
1.2100000e+01 0.0000000e+00 0.0000000e+00 
1.2200000e+01 0.0000000e+00 0.0000000e+00 
1.2300000e+01 0.0000000e+00 0.0000000e+00 
1.2400000e+01 0.0000000e+00 0.0000000e+00 
1.2500000e+01 0.0000000e+00 0.0000000e+00 
1.2600000e+01 0.0000000e+00 0.0000000e+00 
1.2700000e+01 0.0000000e+00 0.0000000e+00 
1.2800000e+01 0.0000000e+00 0.0000000e+00 
1.2900000e+01 0.0000000e+00 0.0000000e+00 
1.3000000e+01 0.0000000e+00 0.0000000e+00 
1.3100000e+01 0.0000000e+00 0.0000000e+00 
1.3200000e+01 0.0000000e+00 0.0000000e+00 
1.3300000e+01 0.0000000e+00 0.0000000e+00 
1.3400000e+01 0.0000000e+00 0.0000000e+00 
1.3500000e+01 0.0000000e+00 0.0000000e+00 
1.3600000e+01 0.0000000e+00 0.0000000e+00 
1.3700000e+01 0.0000000e+00 0.0000000e+00 
1.3800000e+01 0.0000000e+00 0.0000000e+00 
1.3900000e+01 0.0000000e+00 0.0000000e+00 
1.4000000e+01 0.0000000e+00 0.0000000e+00 
1.4100000e+01 0.0000000e+00 0.0000000e+00 
1.4200000e+01 0.0000000e+00 0.0000000e+00 
1.4300000e+01 0.0000000e+00 0.0000000e+00 
1.4400000e+01 0.0000000e+00 0.0000000e+00 
1.4500000e+01 0.0000000e+00 0.0000000e+00 
1.4600000e+01 0.0000000e+00 0.0000000e+00 
1.4700000e+01 0.0000000e+00 0.0000000e+00 
1.4800000e+01 0.0000000e+00 0.0000000e+00 
1.4900000e+01 0.0000000e+00 0.0000000e+00 
1.5000000e+01 0.0000000e+00 0.0000000e+00 
1.5100000e+01 0.0000000e+00 0.0000000e+00 
1.5200000e+01 0.0000000e+00 0.0000000e+00 
1.5300000e+01 0.0000000e+00 0.0000000e+00 
1.5400000e+01 0.0000000e+00 0.0000000e+00 
1.5500000e+01 0.0000000e+00 0.0000000e+00 
1.5600000e+01 0.0000000e+00 0.0000000e+00 
1.5700000e+01 0.0000000e+00 0.0000000e+00 
1.5800000e+01 0.0000000e+00 0.0000000e+00 
1.5900000e+01 0.0000000e+00 0.0000000e+00 
1.6000000e+01 0.0000000e+00 0.0000000e+00 
1.6100000e+01 0.0000000e+00 0.0000000e+00 
1.6200001e+01 0.0000000e+00 0.0000000e+00 
1.6299999e+01 0.0000000e+00 0.0000000e+00 
1.6400000e+01 0.0000000e+00 0.0000000e+00 
1.6500000e+01 0.0000000e+00 0.0000000e+00 
1.6600000e+01 0.0000000e+00 0.0000000e+00 
1.6700001e+01 0.0000000e+00 0.0000000e+00 
1.6799999e+01 0.0000000e+00 0.0000000e+00 
1.6900000e+01 0.0000000e+00 0.0000000e+00 
1.7000000e+01 0.0000000e+00 0.0000000e+00 
1.7100000e+01 0.0000000e+00 0.0000000e+00 
1.7200001e+01 0.0000000e+00 0.0000000e+00 
1.7299999e+01 0.0000000e+00 0.0000000e+00 
1.7400000e+01 0.0000000e+00 0.0000000e+00 
1.7500000e+01 0.0000000e+00 0.0000000e+00 
1.7600000e+01 0.0000000e+00 0.0000000e+00 
1.7700001e+01 0.0000000e+00 0.0000000e+00 
1.7799999e+01 0.0000000e+00 0.0000000e+00 
1.7900000e+01 0.0000000e+00 0.0000000e+00 
1.8000000e+01 0.0000000e+00 0.0000000e+00 
1.8100000e+01 0.0000000e+00 0.0000000e+00 
1.8200001e+01 0.0000000e+00 0.0000000e+00 
1.8299999e+01 0.0000000e+00 0.0000000e+00 
1.8400000e+01 0.0000000e+00 0.0000000e+00 
1.8500000e+01 0.0000000e+00 0.0000000e+00 
1.8600000e+01 0.0000000e+00 0.0000000e+00 
1.8700001e+01 0.0000000e+00 0.0000000e+00 
1.8799999e+01 0.0000000e+00 0.0000000e+00 
1.8900000e+01 0.0000000e+00 0.0000000e+00 
1.9000000e+01 0.0000000e+00 0.0000000e+00 
1.9100000e+01 0.0000000e+00 0.0000000e+00 
1.9200001e+01 0.0000000e+00 0.0000000e+00 
1.9299999e+01 0.0000000e+00 0.0000000e+00 
1.9400000e+01 0.0000000e+00 0.0000000e+00 
1.9500000e+01 0.0000000e+00 0.0000000e+00 
1.9600000e+01 0.0000000e+00 0.0000000e+00 
1.9700001e+01 0.0000000e+00 0.0000000e+00 
1.9799999e+01 0.0000000e+00 0.0000000e+00 
1.9900000e+01 0.0000000e+00 0.0000000e+00 
2.0000000e+01 0.0000000e+00 0.0000000e+00 
2.0100000e+01 0.0000000e+00 0.0000000e+00 
2.0200001e+01 0.0000000e+00 0.0000000e+00 
2.0299999e+01 0.0000000e+00 0.0000000e+00 
2.0400000e+01 0.0000000e+00 0.0000000e+00 
2.0500000e+01 0.0000000e+00 0.0000000e+00 
2.0600000e+01 0.0000000e+00 0.0000000e+00 
2.0700001e+01 0.0000000e+00 0.0000000e+00 
2.0799999e+01 0.0000000e+00 0.0000000e+00 
2.0900000e+01 0.0000000e+00 0.0000000e+00 
2.1000000e+01 0.0000000e+00 0.0000000e+00 
2.1100000e+01 0.0000000e+00 0.0000000e+00 
2.1200001e+01 0.0000000e+00 0.0000000e+00 
2.1299999e+01 0.0000000e+00 0.0000000e+00 
2.1400000e+01 0.0000000e+00 0.0000000e+00 
2.1500000e+01 0.0000000e+00 0.0000000e+00 
2.1600000e+01 0.0000000e+00 0.0000000e+00 
2.1700001e+01 0.0000000e+00 0.0000000e+00 
2.1799999e+01 0.0000000e+00 0.0000000e+00 
2.1900000e+01 0.0000000e+00 0.0000000e+00 
2.2000000e+01 0.0000000e+00 0.0000000e+00 
2.2100000e+01 0.0000000e+00 0.0000000e+00 
2.2200001e+01 0.0000000e+00 0.0000000e+00 
2.2299999e+01 0.0000000e+00 0.0000000e+00 
2.2400000e+01 0.0000000e+00 0.0000000e+00 
2.2500000e+01 0.0000000e+00 0.0000000e+00 
2.2600000e+01 0.0000000e+00 0.0000000e+00 
2.2700001e+01 0.0000000e+00 0.0000000e+00 
2.2799999e+01 0.0000000e+00 0.0000000e+00 
2.2900000e+01 0.0000000e+00 0.0000000e+00 
2.3000000e+01 0.0000000e+00 0.0000000e+00 
2.3100000e+01 0.0000000e+00 0.0000000e+00 
2.3200001e+01 0.0000000e+00 0.0000000e+00 
2.3299999e+01 0.0000000e+00 0.0000000e+00 
2.3400000e+01 0.0000000e+00 0.0000000e+00 
2.3500000e+01 0.0000000e+00 0.0000000e+00 
2.3600000e+01 0.0000000e+00 0.0000000e+00 
2.3700001e+01 0.0000000e+00 0.0000000e+00 
2.3799999e+01 0.0000000e+00 0.0000000e+00 
2.3900000e+01 0.0000000e+00 0.0000000e+00 
2.4000000e+01 0.0000000e+00 0.0000000e+00 
2.4100000e+01 0.0000000e+00 0.0000000e+00 
2.4200001e+01 0.0000000e+00 0.0000000e+00 
2.4299999e+01 0.0000000e+00 0.0000000e+00 
2.4400000e+01 0.0000000e+00 0.0000000e+00 
2.4500000e+01 0.0000000e+00 0.0000000e+00 
2.4600000e+01 0.0000000e+00 0.0000000e+00 
2.4700001e+01 0.0000000e+00 0.0000000e+00 
2.4799999e+01 0.0000000e+00 0.0000000e+00 
2.4900000e+01 0.0000000e+00 0.0000000e+00 

CELLS 250 750
2 0 2
2 2 3
2 3 4
2 4 5
2 5 6
2 6 7
2 7 8
2 8 9
2 9 10
2 10 11
2 11 12
2 12 13
2 13 14
2 14 15
2 15 16
2 16 17
2 17 18
2 18 19
2 19 20
2 20 21
2 21 22
2 22 23
2 23 24
2 24 25
2 25 26
2 26 27
2 27 28
2 28 29
2 29 30
2 30 31
2 31 32
2 32 33
2 33 34
2 34 35
2 35 36
2 36 37
2 37 38
2 38 39
2 39 40
2 40 41
2 41 42
2 42 43
2 43 44
2 44 45
2 45 46
2 46 47
2 47 48
2 48 49
2 49 50
2 50 51
2 51 52
2 52 53
2 53 54
2 54 55
2 55 56
2 56 57
2 57 58
2 58 59
2 59 60
2 60 61
2 61 62
2 62 63
2 63 64
2 64 65
2 65 66
2 66 67
2 67 68
2 68 69
2 69 70
2 70 71
2 71 72
2 72 73
2 73 74
2 74 75
2 75 76
2 76 77
2 77 78
2 78 79
2 79 80
2 80 81
2 81 82
2 82 83
2 83 84
2 84 85
2 85 86
2 86 87
2 87 88
2 88 89
2 89 90
2 90 91
2 91 92
2 92 93
2 93 94
2 94 95
2 95 96
2 96 97
2 97 98
2 98 99
2 99 100
2 100 101
2 101 102
2 102 103
2 103 104
2 104 105
2 105 106
2 106 107
2 107 108
2 108 109
2 109 110
2 110 111
2 111 112
2 112 113
2 113 114
2 114 115
2 115 116
2 116 117
2 117 118
2 118 119
2 119 120
2 120 121
2 121 122
2 122 123
2 123 124
2 124 125
2 125 126
2 126 127
2 127 128
2 128 129
2 129 130
2 130 131
2 131 132
2 132 133
2 133 134
2 134 135
2 135 136
2 136 137
2 137 138
2 138 139
2 139 140
2 140 141
2 141 142
2 142 143
2 143 144
2 144 145
2 145 146
2 146 147
2 147 148
2 148 149
2 149 150
2 150 151
2 151 152
2 152 153
2 153 154
2 154 155
2 155 156
2 156 157
2 157 158
2 158 159
2 159 160
2 160 161
2 161 162
2 162 163
2 163 164
2 164 165
2 165 166
2 166 167
2 167 168
2 168 169
2 169 170
2 170 171
2 171 172
2 172 173
2 173 174
2 174 175
2 175 176
2 176 177
2 177 178
2 178 179
2 179 180
2 180 181
2 181 182
2 182 183
2 183 184
2 184 185
2 185 186
2 186 187
2 187 188
2 188 189
2 189 190
2 190 191
2 191 192
2 192 193
2 193 194
2 194 195
2 195 196
2 196 197
2 197 198
2 198 199
2 199 200
2 200 201
2 201 202
2 202 203
2 203 204
2 204 205
2 205 206
2 206 207
2 207 208
2 208 209
2 209 210
2 210 211
2 211 212
2 212 213
2 213 214
2 214 215
2 215 216
2 216 217
2 217 218
2 218 219
2 219 220
2 220 221
2 221 222
2 222 223
2 223 224
2 224 225
2 225 226
2 226 227
2 227 228
2 228 229
2 229 230
2 230 231
2 231 232
2 232 233
2 233 234
2 234 235
2 235 236
2 236 237
2 237 238
2 238 239
2 239 240
2 240 241
2 241 242
2 242 243
2 243 244
2 244 245
2 245 246
2 246 247
2 247 248
2 248 249
2 249 250
2 250 1

CELL_TYPES 250
3
3
3
3
3
3
3
3
3
3
3
3
3
3
3
3
3
3
3
3
3
3
3
3
3
3
3
3
3
3
3
3
3
3
3
3
3
3
3
3
3
3
3
3
3
3
3
3
3
3
3
3
3
3
3
3
3
3
3
3
3
3
3
3
3
3
3
3
3
3
3
3
3
3
3
3
3
3
3
3
3
3
3
3
3
3
3
3
3
3
3
3
3
3
3
3
3
3
3
3
3
3
3
3
3
3
3
3
3
3
3
3
3
3
3
3
3
3
3
3
3
3
3
3
3
3
3
3
3
3
3
3
3
3
3
3
3
3
3
3
3
3
3
3
3
3
3
3
3
3
3
3
3
3
3
3
3
3
3
3
3
3
3
3
3
3
3
3
3
3
3
3
3
3
3
3
3
3
3
3
3
3
3
3
3
3
3
3
3
3
3
3
3
3
3
3
3
3
3
3
3
3
3
3
3
3
3
3
3
3
3
3
3
3
3
3
3
3
3
3
3
3
3
3
3
3
3
3
3
3
3
3
3
3
3
3
3
3
3
3
3
3
3
3
3
3
3
3
3
3
POINT_DATA 251
FIELD FieldData 1
DISPLACEMENT 3 251  float
0.0000000e+00 0.0000000e+00 0.0000000e+00 
0.0000000e+00 0.0000000e+00 0.0000000e+00 
0.0000000e+00 -3.6686246e-04 0.0000000e+00 
0.0000000e+00 -7.3365972e-04 0.0000000e+00 
0.0000000e+00 -1.1003268e-03 0.0000000e+00 
0.0000000e+00 -1.4667984e-03 0.0000000e+00 
0.0000000e+00 -1.8330093e-03 0.0000000e+00 
0.0000000e+00 -2.1988945e-03 0.0000000e+00 
0.0000000e+00 -2.5643888e-03 0.0000000e+00 
0.0000000e+00 -2.9294272e-03 0.0000000e+00 
0.0000000e+00 -3.2939443e-03 0.0000000e+00 
0.0000000e+00 -3.6578751e-03 0.0000000e+00 
0.0000000e+00 -4.0211543e-03 0.0000000e+00 
0.0000000e+00 -4.3837172e-03 0.0000000e+00 
0.0000000e+00 -4.7454983e-03 0.0000000e+00 
0.0000000e+00 -5.1064324e-03 0.0000000e+00 
0.0000000e+00 -5.4664542e-03 0.0000000e+00 
0.0000000e+00 -5.8254991e-03 0.0000000e+00 
0.0000000e+00 -6.1835013e-03 0.0000000e+00 
0.0000000e+00 -6.5403963e-03 0.0000000e+00 
0.0000000e+00 -6.8961182e-03 0.0000000e+00 
0.0000000e+00 -7.2506028e-03 0.0000000e+00 
0.0000000e+00 -7.6037841e-03 0.0000000e+00 
0.0000000e+00 -7.9555977e-03 0.0000000e+00 
0.0000000e+00 -8.3059780e-03 0.0000000e+00 
0.0000000e+00 -8.6548598e-03 0.0000000e+00 
0.0000000e+00 -9.0021780e-03 0.0000000e+00 
0.0000000e+00 -9.3478672e-03 0.0000000e+00 
0.0000000e+00 -9.6918633e-03 0.0000000e+00 
0.0000000e+00 -1.0034100e-02 0.0000000e+00 
0.0000000e+00 -1.0374513e-02 0.0000000e+00 
0.0000000e+00 -1.0713035e-02 0.0000000e+00 
0.0000000e+00 -1.1049604e-02 0.0000000e+00 
0.0000000e+00 -1.1384154e-02 0.0000000e+00 
0.0000000e+00 -1.1716618e-02 0.0000000e+00 
0.0000000e+00 -1.2046933e-02 0.0000000e+00 
0.0000000e+00 -1.2375033e-02 0.0000000e+00 
0.0000000e+00 -1.2700852e-02 0.0000000e+00 
0.0000000e+00 -1.3024326e-02 0.0000000e+00 
0.0000000e+00 -1.3345391e-02 0.0000000e+00 
0.0000000e+00 -1.3663978e-02 0.0000000e+00 
0.0000000e+00 -1.3980026e-02 0.0000000e+00 
0.0000000e+00 -1.4293468e-02 0.0000000e+00 
0.0000000e+00 -1.4604238e-02 0.0000000e+00 
0.0000000e+00 -1.4912273e-02 0.0000000e+00 
0.0000000e+00 -1.5217505e-02 0.0000000e+00 
0.0000000e+00 -1.5519871e-02 0.0000000e+00 
0.0000000e+00 -1.5819307e-02 0.0000000e+00 
0.0000000e+00 -1.6115746e-02 0.0000000e+00 
0.0000000e+00 -1.6409121e-02 0.0000000e+00 
0.0000000e+00 -1.6699370e-02 0.0000000e+00 
0.0000000e+00 -1.6986426e-02 0.0000000e+00 
0.0000000e+00 -1.7270226e-02 0.0000000e+00 
0.0000000e+00 -1.7550703e-02 0.0000000e+00 
0.0000000e+00 -1.7827792e-02 0.0000000e+00 
0.0000000e+00 -1.8101430e-02 0.0000000e+00 
0.0000000e+00 -1.8371547e-02 0.0000000e+00 
0.0000000e+00 -1.8638082e-02 0.0000000e+00 
0.0000000e+00 -1.8900970e-02 0.0000000e+00 
0.0000000e+00 -1.9160144e-02 0.0000000e+00 
0.0000000e+00 -1.9415539e-02 0.0000000e+00 
0.0000000e+00 -1.9667091e-02 0.0000000e+00 
0.0000000e+00 -1.9914733e-02 0.0000000e+00 
0.0000000e+00 -2.0158401e-02 0.0000000e+00 
0.0000000e+00 -2.0398030e-02 0.0000000e+00 
0.0000000e+00 -2.0633556e-02 0.0000000e+00 
0.0000000e+00 -2.0864911e-02 0.0000000e+00 
0.0000000e+00 -2.1092033e-02 0.0000000e+00 
0.0000000e+00 -2.1314854e-02 0.0000000e+00 
0.0000000e+00 -2.1533310e-02 0.0000000e+00 
0.0000000e+00 -2.1747338e-02 0.0000000e+00 
0.0000000e+00 -2.1956868e-02 0.0000000e+00 
0.0000000e+00 -2.2161840e-02 0.0000000e+00 
0.0000000e+00 -2.2362186e-02 0.0000000e+00 
0.0000000e+00 -2.2557840e-02 0.0000000e+00 
0.0000000e+00 -2.2748740e-02 0.0000000e+00 
0.0000000e+00 -2.2934819e-02 0.0000000e+00 
0.0000000e+00 -2.3116009e-02 0.0000000e+00 
0.0000000e+00 -2.3292251e-02 0.0000000e+00 
0.0000000e+00 -2.3463476e-02 0.0000000e+00 
0.0000000e+00 -2.3629619e-02 0.0000000e+00 
0.0000000e+00 -2.3790615e-02 0.0000000e+00 
0.0000000e+00 -2.3946401e-02 0.0000000e+00 
0.0000000e+00 -2.4096956e-02 0.0000000e+00 
0.0000000e+00 -2.4242308e-02 0.0000000e+00 
0.0000000e+00 -2.4382487e-02 0.0000000e+00 
0.0000000e+00 -2.4517525e-02 0.0000000e+00 
0.0000000e+00 -2.4647452e-02 0.0000000e+00 
0.0000000e+00 -2.4772299e-02 0.0000000e+00 
0.0000000e+00 -2.4892099e-02 0.0000000e+00 
0.0000000e+00 -2.5006881e-02 0.0000000e+00 
0.0000000e+00 -2.5116678e-02 0.0000000e+00 
0.0000000e+00 -2.5221517e-02 0.0000000e+00 
0.0000000e+00 -2.5321433e-02 0.0000000e+00 
0.0000000e+00 -2.5416456e-02 0.0000000e+00 
0.0000000e+00 -2.5506616e-02 0.0000000e+00 
0.0000000e+00 -2.5591943e-02 0.0000000e+00 
0.0000000e+00 -2.5672471e-02 0.0000000e+00 
0.0000000e+00 -2.5748231e-02 0.0000000e+00 
0.0000000e+00 -2.5819249e-02 0.0000000e+00 
0.0000000e+00 -2.5885560e-02 0.0000000e+00 
0.0000000e+00 -2.5947195e-02 0.0000000e+00 
0.0000000e+00 -2.6004184e-02 0.0000000e+00 
0.0000000e+00 -2.6056558e-02 0.0000000e+00 
0.0000000e+00 -2.6104350e-02 0.0000000e+00 
0.0000000e+00 -2.6147587e-02 0.0000000e+00 
0.0000000e+00 -2.6186302e-02 0.0000000e+00 
0.0000000e+00 -2.6220527e-02 0.0000000e+00 
0.0000000e+00 -2.6250292e-02 0.0000000e+00 
0.0000000e+00 -2.6275627e-02 0.0000000e+00 
0.0000000e+00 -2.6296565e-02 0.0000000e+00 
0.0000000e+00 -2.6313137e-02 0.0000000e+00 
0.0000000e+00 -2.6325371e-02 0.0000000e+00 
0.0000000e+00 -2.6333300e-02 0.0000000e+00 
0.0000000e+00 -2.6336957e-02 0.0000000e+00 
0.0000000e+00 -2.6336370e-02 0.0000000e+00 
0.0000000e+00 -2.6331570e-02 0.0000000e+00 
0.0000000e+00 -2.6322588e-02 0.0000000e+00 
0.0000000e+00 -2.6309459e-02 0.0000000e+00 
0.0000000e+00 -2.6292207e-02 0.0000000e+00 
0.0000000e+00 -2.6270868e-02 0.0000000e+00 
0.0000000e+00 -2.6245473e-02 0.0000000e+00 
0.0000000e+00 -2.6216051e-02 0.0000000e+00 
0.0000000e+00 -2.6182633e-02 0.0000000e+00 
0.0000000e+00 -2.6145251e-02 0.0000000e+00 
0.0000000e+00 -2.6103936e-02 0.0000000e+00 
0.0000000e+00 -2.6058719e-02 0.0000000e+00 
0.0000000e+00 -2.6009630e-02 0.0000000e+00 
0.0000000e+00 -2.5956700e-02 0.0000000e+00 
0.0000000e+00 -2.5899962e-02 0.0000000e+00 
0.0000000e+00 -2.5839442e-02 0.0000000e+00 
0.0000000e+00 -2.5775177e-02 0.0000000e+00 
0.0000000e+00 -2.5707196e-02 0.0000000e+00 
0.0000000e+00 -2.5635527e-02 0.0000000e+00 
0.0000000e+00 -2.5560206e-02 0.0000000e+00 
0.0000000e+00 -2.5481259e-02 0.0000000e+00 
0.0000000e+00 -2.5398722e-02 0.0000000e+00 
0.0000000e+00 -2.5312621e-02 0.0000000e+00 
0.0000000e+00 -2.5222989e-02 0.0000000e+00 
0.0000000e+00 -2.5129858e-02 0.0000000e+00 
0.0000000e+00 -2.5033260e-02 0.0000000e+00 
0.0000000e+00 -2.4933221e-02 0.0000000e+00 
0.0000000e+00 -2.4829777e-02 0.0000000e+00 
0.0000000e+00 -2.4722956e-02 0.0000000e+00 
0.0000000e+00 -2.4612790e-02 0.0000000e+00 
0.0000000e+00 -2.4499312e-02 0.0000000e+00 
0.0000000e+00 -2.4382548e-02 0.0000000e+00 
0.0000000e+00 -2.4262534e-02 0.0000000e+00 
0.0000000e+00 -2.4139298e-02 0.0000000e+00 
0.0000000e+00 -2.4012873e-02 0.0000000e+00 
0.0000000e+00 -2.3883289e-02 0.0000000e+00 
0.0000000e+00 -2.3750575e-02 0.0000000e+00 
0.0000000e+00 -2.3614766e-02 0.0000000e+00 
0.0000000e+00 -2.3475889e-02 0.0000000e+00 
0.0000000e+00 -2.3333978e-02 0.0000000e+00 
0.0000000e+00 -2.3189062e-02 0.0000000e+00 
0.0000000e+00 -2.3041174e-02 0.0000000e+00 
0.0000000e+00 -2.2890342e-02 0.0000000e+00 
0.0000000e+00 -2.2736600e-02 0.0000000e+00 
0.0000000e+00 -2.2579975e-02 0.0000000e+00 
0.0000000e+00 -2.2420503e-02 0.0000000e+00 
0.0000000e+00 -2.2258213e-02 0.0000000e+00 
0.0000000e+00 -2.2093134e-02 0.0000000e+00 
0.0000000e+00 -2.1925298e-02 0.0000000e+00 
0.0000000e+00 -2.1754740e-02 0.0000000e+00 
0.0000000e+00 -2.1581484e-02 0.0000000e+00 
0.0000000e+00 -2.1405566e-02 0.0000000e+00 
0.0000000e+00 -2.1227015e-02 0.0000000e+00 
0.0000000e+00 -2.1045862e-02 0.0000000e+00 
0.0000000e+00 -2.0862138e-02 0.0000000e+00 
0.0000000e+00 -2.0675875e-02 0.0000000e+00 
0.0000000e+00 -2.0487104e-02 0.0000000e+00 
0.0000000e+00 -2.0295855e-02 0.0000000e+00 
0.0000000e+00 -2.0102158e-02 0.0000000e+00 
0.0000000e+00 -1.9906046e-02 0.0000000e+00 
0.0000000e+00 -1.9707549e-02 0.0000000e+00 
0.0000000e+00 -1.9506698e-02 0.0000000e+00 
0.0000000e+00 -1.9303525e-02 0.0000000e+00 
0.0000000e+00 -1.9098060e-02 0.0000000e+00 
0.0000000e+00 -1.8890332e-02 0.0000000e+00 
0.0000000e+00 -1.8680377e-02 0.0000000e+00 
0.0000000e+00 -1.8468222e-02 0.0000000e+00 
0.0000000e+00 -1.8253898e-02 0.0000000e+00 
0.0000000e+00 -1.8037437e-02 0.0000000e+00 
0.0000000e+00 -1.7818870e-02 0.0000000e+00 
0.0000000e+00 -1.7598229e-02 0.0000000e+00 
0.0000000e+00 -1.7375544e-02 0.0000000e+00 
0.0000000e+00 -1.7150845e-02 0.0000000e+00 
0.0000000e+00 -1.6924163e-02 0.0000000e+00 
0.0000000e+00 -1.6695531e-02 0.0000000e+00 
0.0000000e+00 -1.6464978e-02 0.0000000e+00 
0.0000000e+00 -1.6232537e-02 0.0000000e+00 
0.0000000e+00 -1.5998237e-02 0.0000000e+00 
0.0000000e+00 -1.5762109e-02 0.0000000e+00 
0.0000000e+00 -1.5524185e-02 0.0000000e+00 
0.0000000e+00 -1.5284495e-02 0.0000000e+00 
0.0000000e+00 -1.5043072e-02 0.0000000e+00 
0.0000000e+00 -1.4799945e-02 0.0000000e+00 
0.0000000e+00 -1.4555145e-02 0.0000000e+00 
0.0000000e+00 -1.4308704e-02 0.0000000e+00 
0.0000000e+00 -1.4060653e-02 0.0000000e+00 
0.0000000e+00 -1.3811021e-02 0.0000000e+00 
0.0000000e+00 -1.3559842e-02 0.0000000e+00 
0.0000000e+00 -1.3307144e-02 0.0000000e+00 
0.0000000e+00 -1.3052960e-02 0.0000000e+00 
0.0000000e+00 -1.2797320e-02 0.0000000e+00 
0.0000000e+00 -1.2540256e-02 0.0000000e+00 
0.0000000e+00 -1.2281798e-02 0.0000000e+00 
0.0000000e+00 -1.2021977e-02 0.0000000e+00 
0.0000000e+00 -1.1760824e-02 0.0000000e+00 
0.0000000e+00 -1.1498371e-02 0.0000000e+00 
0.0000000e+00 -1.1234648e-02 0.0000000e+00 
0.0000000e+00 -1.0969685e-02 0.0000000e+00 
0.0000000e+00 -1.0703515e-02 0.0000000e+00 
0.0000000e+00 -1.0436168e-02 0.0000000e+00 
0.0000000e+00 -1.0167675e-02 0.0000000e+00 
0.0000000e+00 -9.8980675e-03 0.0000000e+00 
0.0000000e+00 -9.6273758e-03 0.0000000e+00 
0.0000000e+00 -9.3556307e-03 0.0000000e+00 
0.0000000e+00 -9.0828631e-03 0.0000000e+00 
0.0000000e+00 -8.8091055e-03 0.0000000e+00 
0.0000000e+00 -8.5343868e-03 0.0000000e+00 
0.0000000e+00 -8.2587395e-03 0.0000000e+00 
0.0000000e+00 -7.9821935e-03 0.0000000e+00 
0.0000000e+00 -7.7047809e-03 0.0000000e+00 
0.0000000e+00 -7.4265320e-03 0.0000000e+00 
0.0000000e+00 -7.1474775e-03 0.0000000e+00 
0.0000000e+00 -6.8676486e-03 0.0000000e+00 
0.0000000e+00 -6.5870769e-03 0.0000000e+00 
0.0000000e+00 -6.3057924e-03 0.0000000e+00 
0.0000000e+00 -6.0238270e-03 0.0000000e+00 
0.0000000e+00 -5.7412107e-03 0.0000000e+00 
0.0000000e+00 -5.4579754e-03 0.0000000e+00 
0.0000000e+00 -5.1741512e-03 0.0000000e+00 
0.0000000e+00 -4.8897699e-03 0.0000000e+00 
0.0000000e+00 -4.6048616e-03 0.0000000e+00 
0.0000000e+00 -4.3194583e-03 0.0000000e+00 
0.0000000e+00 -4.0335902e-03 0.0000000e+00 
0.0000000e+00 -3.7472884e-03 0.0000000e+00 
0.0000000e+00 -3.4605840e-03 0.0000000e+00 
0.0000000e+00 -3.1735080e-03 0.0000000e+00 
0.0000000e+00 -2.8860911e-03 0.0000000e+00 
0.0000000e+00 -2.5983648e-03 0.0000000e+00 
0.0000000e+00 -2.3103596e-03 0.0000000e+00 
0.0000000e+00 -2.0221067e-03 0.0000000e+00 
0.0000000e+00 -1.7336369e-03 0.0000000e+00 
0.0000000e+00 -1.4449813e-03 0.0000000e+00 
0.0000000e+00 -1.1561710e-03 0.0000000e+00 
0.0000000e+00 -8.6723658e-04 0.0000000e+00 
0.0000000e+00 -5.7820935e-04 0.0000000e+00 
0.0000000e+00 -2.8912016e-04 0.0000000e+00 
CELL_DATA 250
FIELD FieldData 0
