# vtk DataFile Version 4.0
vtk output
ASCII
DATASET UNSTRUCTURED_GRID
POINTS 251 float
0.0000000e+00 0.0000000e+00 0.0000000e+00 
2.5000000e+01 0.0000000e+00 0.0000000e+00 
1.0000000e-01 0.0000000e+00 0.0000000e+00 
2.0000000e-01 0.0000000e+00 0.0000000e+00 
3.0000001e-01 0.0000000e+00 0.0000000e+00 
4.0000001e-01 0.0000000e+00 0.0000000e+00 
5.0000000e-01 0.0000000e+00 0.0000000e+00 
6.0000002e-01 0.0000000e+00 0.0000000e+00 
6.9999999e-01 0.0000000e+00 0.0000000e+00 
8.0000001e-01 0.0000000e+00 0.0000000e+00 
8.9999998e-01 0.0000000e+00 0.0000000e+00 
1.0000000e+00 0.0000000e+00 0.0000000e+00 
1.1000000e+00 0.0000000e+00 0.0000000e+00 
1.2000000e+00 0.0000000e+00 0.0000000e+00 
1.3000000e+00 0.0000000e+00 0.0000000e+00 
1.4000000e+00 0.0000000e+00 0.0000000e+00 
1.5000000e+00 0.0000000e+00 0.0000000e+00 
1.6000000e+00 0.0000000e+00 0.0000000e+00 
1.7000000e+00 0.0000000e+00 0.0000000e+00 
1.8000000e+00 0.0000000e+00 0.0000000e+00 
1.9000000e+00 0.0000000e+00 0.0000000e+00 
2.0000000e+00 0.0000000e+00 0.0000000e+00 
2.0999999e+00 0.0000000e+00 0.0000000e+00 
2.2000000e+00 0.0000000e+00 0.0000000e+00 
2.3000000e+00 0.0000000e+00 0.0000000e+00 
2.4000001e+00 0.0000000e+00 0.0000000e+00 
2.5000000e+00 0.0000000e+00 0.0000000e+00 
2.5999999e+00 0.0000000e+00 0.0000000e+00 
2.7000000e+00 0.0000000e+00 0.0000000e+00 
2.8000000e+00 0.0000000e+00 0.0000000e+00 
2.9000001e+00 0.0000000e+00 0.0000000e+00 
3.0000000e+00 0.0000000e+00 0.0000000e+00 
3.0999999e+00 0.0000000e+00 0.0000000e+00 
3.2000000e+00 0.0000000e+00 0.0000000e+00 
3.3000000e+00 0.0000000e+00 0.0000000e+00 
3.4000001e+00 0.0000000e+00 0.0000000e+00 
3.5000000e+00 0.0000000e+00 0.0000000e+00 
3.5999999e+00 0.0000000e+00 0.0000000e+00 
3.7000000e+00 0.0000000e+00 0.0000000e+00 
3.8000000e+00 0.0000000e+00 0.0000000e+00 
3.9000001e+00 0.0000000e+00 0.0000000e+00 
4.0000000e+00 0.0000000e+00 0.0000000e+00 
4.0999999e+00 0.0000000e+00 0.0000000e+00 
4.1999998e+00 0.0000000e+00 0.0000000e+00 
4.3000002e+00 0.0000000e+00 0.0000000e+00 
4.4000001e+00 0.0000000e+00 0.0000000e+00 
4.5000000e+00 0.0000000e+00 0.0000000e+00 
4.5999999e+00 0.0000000e+00 0.0000000e+00 
4.6999998e+00 0.0000000e+00 0.0000000e+00 
4.8000002e+00 0.0000000e+00 0.0000000e+00 
4.9000001e+00 0.0000000e+00 0.0000000e+00 
5.0000000e+00 0.0000000e+00 0.0000000e+00 
5.0999999e+00 0.0000000e+00 0.0000000e+00 
5.1999998e+00 0.0000000e+00 0.0000000e+00 
5.3000002e+00 0.0000000e+00 0.0000000e+00 
5.4000001e+00 0.0000000e+00 0.0000000e+00 
5.5000000e+00 0.0000000e+00 0.0000000e+00 
5.5999999e+00 0.0000000e+00 0.0000000e+00 
5.6999998e+00 0.0000000e+00 0.0000000e+00 
5.8000002e+00 0.0000000e+00 0.0000000e+00 
5.9000001e+00 0.0000000e+00 0.0000000e+00 
6.0000000e+00 0.0000000e+00 0.0000000e+00 
6.0999999e+00 0.0000000e+00 0.0000000e+00 
6.1999998e+00 0.0000000e+00 0.0000000e+00 
6.3000002e+00 0.0000000e+00 0.0000000e+00 
6.4000001e+00 0.0000000e+00 0.0000000e+00 
6.5000000e+00 0.0000000e+00 0.0000000e+00 
6.5999999e+00 0.0000000e+00 0.0000000e+00 
6.6999998e+00 0.0000000e+00 0.0000000e+00 
6.8000002e+00 0.0000000e+00 0.0000000e+00 
6.9000001e+00 0.0000000e+00 0.0000000e+00 
7.0000000e+00 0.0000000e+00 0.0000000e+00 
7.0999999e+00 0.0000000e+00 0.0000000e+00 
7.1999998e+00 0.0000000e+00 0.0000000e+00 
7.3000002e+00 0.0000000e+00 0.0000000e+00 
7.4000001e+00 0.0000000e+00 0.0000000e+00 
7.5000000e+00 0.0000000e+00 0.0000000e+00 
7.5999999e+00 0.0000000e+00 0.0000000e+00 
7.6999998e+00 0.0000000e+00 0.0000000e+00 
7.8000002e+00 0.0000000e+00 0.0000000e+00 
7.9000001e+00 0.0000000e+00 0.0000000e+00 
8.0000000e+00 0.0000000e+00 0.0000000e+00 
8.1000004e+00 0.0000000e+00 0.0000000e+00 
8.1999998e+00 0.0000000e+00 0.0000000e+00 
8.3000002e+00 0.0000000e+00 0.0000000e+00 
8.3999996e+00 0.0000000e+00 0.0000000e+00 
8.5000000e+00 0.0000000e+00 0.0000000e+00 
8.6000004e+00 0.0000000e+00 0.0000000e+00 
8.6999998e+00 0.0000000e+00 0.0000000e+00 
8.8000002e+00 0.0000000e+00 0.0000000e+00 
8.8999996e+00 0.0000000e+00 0.0000000e+00 
9.0000000e+00 0.0000000e+00 0.0000000e+00 
9.1000004e+00 0.0000000e+00 0.0000000e+00 
9.1999998e+00 0.0000000e+00 0.0000000e+00 
9.3000002e+00 0.0000000e+00 0.0000000e+00 
9.3999996e+00 0.0000000e+00 0.0000000e+00 
9.5000000e+00 0.0000000e+00 0.0000000e+00 
9.6000004e+00 0.0000000e+00 0.0000000e+00 
9.6999998e+00 0.0000000e+00 0.0000000e+00 
9.8000002e+00 0.0000000e+00 0.0000000e+00 
9.8999996e+00 0.0000000e+00 0.0000000e+00 
1.0000000e+01 0.0000000e+00 0.0000000e+00 
1.0100000e+01 0.0000000e+00 0.0000000e+00 
1.0200000e+01 0.0000000e+00 0.0000000e+00 
1.0300000e+01 0.0000000e+00 0.0000000e+00 
1.0400000e+01 0.0000000e+00 0.0000000e+00 
1.0500000e+01 0.0000000e+00 0.0000000e+00 
1.0600000e+01 0.0000000e+00 0.0000000e+00 
1.0700000e+01 0.0000000e+00 0.0000000e+00 
1.0800000e+01 0.0000000e+00 0.0000000e+00 
1.0900000e+01 0.0000000e+00 0.0000000e+00 
1.1000000e+01 0.0000000e+00 0.0000000e+00 
1.1100000e+01 0.0000000e+00 0.0000000e+00 
1.1200000e+01 0.0000000e+00 0.0000000e+00 
1.1300000e+01 0.0000000e+00 0.0000000e+00 
1.1400000e+01 0.0000000e+00 0.0000000e+00 
1.1500000e+01 0.0000000e+00 0.0000000e+00 
1.1600000e+01 0.0000000e+00 0.0000000e+00 
1.1700000e+01 0.0000000e+00 0.0000000e+00 
1.1800000e+01 0.0000000e+00 0.0000000e+00 
1.1900000e+01 0.0000000e+00 0.0000000e+00 
1.2000000e+01 0.0000000e+00 0.0000000e+00 
1.2100000e+01 0.0000000e+00 0.0000000e+00 
1.2200000e+01 0.0000000e+00 0.0000000e+00 
1.2300000e+01 0.0000000e+00 0.0000000e+00 
1.2400000e+01 0.0000000e+00 0.0000000e+00 
1.2500000e+01 0.0000000e+00 0.0000000e+00 
1.2600000e+01 0.0000000e+00 0.0000000e+00 
1.2700000e+01 0.0000000e+00 0.0000000e+00 
1.2800000e+01 0.0000000e+00 0.0000000e+00 
1.2900000e+01 0.0000000e+00 0.0000000e+00 
1.3000000e+01 0.0000000e+00 0.0000000e+00 
1.3100000e+01 0.0000000e+00 0.0000000e+00 
1.3200000e+01 0.0000000e+00 0.0000000e+00 
1.3300000e+01 0.0000000e+00 0.0000000e+00 
1.3400000e+01 0.0000000e+00 0.0000000e+00 
1.3500000e+01 0.0000000e+00 0.0000000e+00 
1.3600000e+01 0.0000000e+00 0.0000000e+00 
1.3700000e+01 0.0000000e+00 0.0000000e+00 
1.3800000e+01 0.0000000e+00 0.0000000e+00 
1.3900000e+01 0.0000000e+00 0.0000000e+00 
1.4000000e+01 0.0000000e+00 0.0000000e+00 
1.4100000e+01 0.0000000e+00 0.0000000e+00 
1.4200000e+01 0.0000000e+00 0.0000000e+00 
1.4300000e+01 0.0000000e+00 0.0000000e+00 
1.4400000e+01 0.0000000e+00 0.0000000e+00 
1.4500000e+01 0.0000000e+00 0.0000000e+00 
1.4600000e+01 0.0000000e+00 0.0000000e+00 
1.4700000e+01 0.0000000e+00 0.0000000e+00 
1.4800000e+01 0.0000000e+00 0.0000000e+00 
1.4900000e+01 0.0000000e+00 0.0000000e+00 
1.5000000e+01 0.0000000e+00 0.0000000e+00 
1.5100000e+01 0.0000000e+00 0.0000000e+00 
1.5200000e+01 0.0000000e+00 0.0000000e+00 
1.5300000e+01 0.0000000e+00 0.0000000e+00 
1.5400000e+01 0.0000000e+00 0.0000000e+00 
1.5500000e+01 0.0000000e+00 0.0000000e+00 
1.5600000e+01 0.0000000e+00 0.0000000e+00 
1.5700000e+01 0.0000000e+00 0.0000000e+00 
1.5800000e+01 0.0000000e+00 0.0000000e+00 
1.5900000e+01 0.0000000e+00 0.0000000e+00 
1.6000000e+01 0.0000000e+00 0.0000000e+00 
1.6100000e+01 0.0000000e+00 0.0000000e+00 
1.6200001e+01 0.0000000e+00 0.0000000e+00 
1.6299999e+01 0.0000000e+00 0.0000000e+00 
1.6400000e+01 0.0000000e+00 0.0000000e+00 
1.6500000e+01 0.0000000e+00 0.0000000e+00 
1.6600000e+01 0.0000000e+00 0.0000000e+00 
1.6700001e+01 0.0000000e+00 0.0000000e+00 
1.6799999e+01 0.0000000e+00 0.0000000e+00 
1.6900000e+01 0.0000000e+00 0.0000000e+00 
1.7000000e+01 0.0000000e+00 0.0000000e+00 
1.7100000e+01 0.0000000e+00 0.0000000e+00 
1.7200001e+01 0.0000000e+00 0.0000000e+00 
1.7299999e+01 0.0000000e+00 0.0000000e+00 
1.7400000e+01 0.0000000e+00 0.0000000e+00 
1.7500000e+01 0.0000000e+00 0.0000000e+00 
1.7600000e+01 0.0000000e+00 0.0000000e+00 
1.7700001e+01 0.0000000e+00 0.0000000e+00 
1.7799999e+01 0.0000000e+00 0.0000000e+00 
1.7900000e+01 0.0000000e+00 0.0000000e+00 
1.8000000e+01 0.0000000e+00 0.0000000e+00 
1.8100000e+01 0.0000000e+00 0.0000000e+00 
1.8200001e+01 0.0000000e+00 0.0000000e+00 
1.8299999e+01 0.0000000e+00 0.0000000e+00 
1.8400000e+01 0.0000000e+00 0.0000000e+00 
1.8500000e+01 0.0000000e+00 0.0000000e+00 
1.8600000e+01 0.0000000e+00 0.0000000e+00 
1.8700001e+01 0.0000000e+00 0.0000000e+00 
1.8799999e+01 0.0000000e+00 0.0000000e+00 
1.8900000e+01 0.0000000e+00 0.0000000e+00 
1.9000000e+01 0.0000000e+00 0.0000000e+00 
1.9100000e+01 0.0000000e+00 0.0000000e+00 
1.9200001e+01 0.0000000e+00 0.0000000e+00 
1.9299999e+01 0.0000000e+00 0.0000000e+00 
1.9400000e+01 0.0000000e+00 0.0000000e+00 
1.9500000e+01 0.0000000e+00 0.0000000e+00 
1.9600000e+01 0.0000000e+00 0.0000000e+00 
1.9700001e+01 0.0000000e+00 0.0000000e+00 
1.9799999e+01 0.0000000e+00 0.0000000e+00 
1.9900000e+01 0.0000000e+00 0.0000000e+00 
2.0000000e+01 0.0000000e+00 0.0000000e+00 
2.0100000e+01 0.0000000e+00 0.0000000e+00 
2.0200001e+01 0.0000000e+00 0.0000000e+00 
2.0299999e+01 0.0000000e+00 0.0000000e+00 
2.0400000e+01 0.0000000e+00 0.0000000e+00 
2.0500000e+01 0.0000000e+00 0.0000000e+00 
2.0600000e+01 0.0000000e+00 0.0000000e+00 
2.0700001e+01 0.0000000e+00 0.0000000e+00 
2.0799999e+01 0.0000000e+00 0.0000000e+00 
2.0900000e+01 0.0000000e+00 0.0000000e+00 
2.1000000e+01 0.0000000e+00 0.0000000e+00 
2.1100000e+01 0.0000000e+00 0.0000000e+00 
2.1200001e+01 0.0000000e+00 0.0000000e+00 
2.1299999e+01 0.0000000e+00 0.0000000e+00 
2.1400000e+01 0.0000000e+00 0.0000000e+00 
2.1500000e+01 0.0000000e+00 0.0000000e+00 
2.1600000e+01 0.0000000e+00 0.0000000e+00 
2.1700001e+01 0.0000000e+00 0.0000000e+00 
2.1799999e+01 0.0000000e+00 0.0000000e+00 
2.1900000e+01 0.0000000e+00 0.0000000e+00 
2.2000000e+01 0.0000000e+00 0.0000000e+00 
2.2100000e+01 0.0000000e+00 0.0000000e+00 
2.2200001e+01 0.0000000e+00 0.0000000e+00 
2.2299999e+01 0.0000000e+00 0.0000000e+00 
2.2400000e+01 0.0000000e+00 0.0000000e+00 
2.2500000e+01 0.0000000e+00 0.0000000e+00 
2.2600000e+01 0.0000000e+00 0.0000000e+00 
2.2700001e+01 0.0000000e+00 0.0000000e+00 
2.2799999e+01 0.0000000e+00 0.0000000e+00 
2.2900000e+01 0.0000000e+00 0.0000000e+00 
2.3000000e+01 0.0000000e+00 0.0000000e+00 
2.3100000e+01 0.0000000e+00 0.0000000e+00 
2.3200001e+01 0.0000000e+00 0.0000000e+00 
2.3299999e+01 0.0000000e+00 0.0000000e+00 
2.3400000e+01 0.0000000e+00 0.0000000e+00 
2.3500000e+01 0.0000000e+00 0.0000000e+00 
2.3600000e+01 0.0000000e+00 0.0000000e+00 
2.3700001e+01 0.0000000e+00 0.0000000e+00 
2.3799999e+01 0.0000000e+00 0.0000000e+00 
2.3900000e+01 0.0000000e+00 0.0000000e+00 
2.4000000e+01 0.0000000e+00 0.0000000e+00 
2.4100000e+01 0.0000000e+00 0.0000000e+00 
2.4200001e+01 0.0000000e+00 0.0000000e+00 
2.4299999e+01 0.0000000e+00 0.0000000e+00 
2.4400000e+01 0.0000000e+00 0.0000000e+00 
2.4500000e+01 0.0000000e+00 0.0000000e+00 
2.4600000e+01 0.0000000e+00 0.0000000e+00 
2.4700001e+01 0.0000000e+00 0.0000000e+00 
2.4799999e+01 0.0000000e+00 0.0000000e+00 
2.4900000e+01 0.0000000e+00 0.0000000e+00 

CELLS 250 750
2 0 2
2 2 3
2 3 4
2 4 5
2 5 6
2 6 7
2 7 8
2 8 9
2 9 10
2 10 11
2 11 12
2 12 13
2 13 14
2 14 15
2 15 16
2 16 17
2 17 18
2 18 19
2 19 20
2 20 21
2 21 22
2 22 23
2 23 24
2 24 25
2 25 26
2 26 27
2 27 28
2 28 29
2 29 30
2 30 31
2 31 32
2 32 33
2 33 34
2 34 35
2 35 36
2 36 37
2 37 38
2 38 39
2 39 40
2 40 41
2 41 42
2 42 43
2 43 44
2 44 45
2 45 46
2 46 47
2 47 48
2 48 49
2 49 50
2 50 51
2 51 52
2 52 53
2 53 54
2 54 55
2 55 56
2 56 57
2 57 58
2 58 59
2 59 60
2 60 61
2 61 62
2 62 63
2 63 64
2 64 65
2 65 66
2 66 67
2 67 68
2 68 69
2 69 70
2 70 71
2 71 72
2 72 73
2 73 74
2 74 75
2 75 76
2 76 77
2 77 78
2 78 79
2 79 80
2 80 81
2 81 82
2 82 83
2 83 84
2 84 85
2 85 86
2 86 87
2 87 88
2 88 89
2 89 90
2 90 91
2 91 92
2 92 93
2 93 94
2 94 95
2 95 96
2 96 97
2 97 98
2 98 99
2 99 100
2 100 101
2 101 102
2 102 103
2 103 104
2 104 105
2 105 106
2 106 107
2 107 108
2 108 109
2 109 110
2 110 111
2 111 112
2 112 113
2 113 114
2 114 115
2 115 116
2 116 117
2 117 118
2 118 119
2 119 120
2 120 121
2 121 122
2 122 123
2 123 124
2 124 125
2 125 126
2 126 127
2 127 128
2 128 129
2 129 130
2 130 131
2 131 132
2 132 133
2 133 134
2 134 135
2 135 136
2 136 137
2 137 138
2 138 139
2 139 140
2 140 141
2 141 142
2 142 143
2 143 144
2 144 145
2 145 146
2 146 147
2 147 148
2 148 149
2 149 150
2 150 151
2 151 152
2 152 153
2 153 154
2 154 155
2 155 156
2 156 157
2 157 158
2 158 159
2 159 160
2 160 161
2 161 162
2 162 163
2 163 164
2 164 165
2 165 166
2 166 167
2 167 168
2 168 169
2 169 170
2 170 171
2 171 172
2 172 173
2 173 174
2 174 175
2 175 176
2 176 177
2 177 178
2 178 179
2 179 180
2 180 181
2 181 182
2 182 183
2 183 184
2 184 185
2 185 186
2 186 187
2 187 188
2 188 189
2 189 190
2 190 191
2 191 192
2 192 193
2 193 194
2 194 195
2 195 196
2 196 197
2 197 198
2 198 199
2 199 200
2 200 201
2 201 202
2 202 203
2 203 204
2 204 205
2 205 206
2 206 207
2 207 208
2 208 209
2 209 210
2 210 211
2 211 212
2 212 213
2 213 214
2 214 215
2 215 216
2 216 217
2 217 218
2 218 219
2 219 220
2 220 221
2 221 222
2 222 223
2 223 224
2 224 225
2 225 226
2 226 227
2 227 228
2 228 229
2 229 230
2 230 231
2 231 232
2 232 233
2 233 234
2 234 235
2 235 236
2 236 237
2 237 238
2 238 239
2 239 240
2 240 241
2 241 242
2 242 243
2 243 244
2 244 245
2 245 246
2 246 247
2 247 248
2 248 249
2 249 250
2 250 1

CELL_TYPES 250
3
3
3
3
3
3
3
3
3
3
3
3
3
3
3
3
3
3
3
3
3
3
3
3
3
3
3
3
3
3
3
3
3
3
3
3
3
3
3
3
3
3
3
3
3
3
3
3
3
3
3
3
3
3
3
3
3
3
3
3
3
3
3
3
3
3
3
3
3
3
3
3
3
3
3
3
3
3
3
3
3
3
3
3
3
3
3
3
3
3
3
3
3
3
3
3
3
3
3
3
3
3
3
3
3
3
3
3
3
3
3
3
3
3
3
3
3
3
3
3
3
3
3
3
3
3
3
3
3
3
3
3
3
3
3
3
3
3
3
3
3
3
3
3
3
3
3
3
3
3
3
3
3
3
3
3
3
3
3
3
3
3
3
3
3
3
3
3
3
3
3
3
3
3
3
3
3
3
3
3
3
3
3
3
3
3
3
3
3
3
3
3
3
3
3
3
3
3
3
3
3
3
3
3
3
3
3
3
3
3
3
3
3
3
3
3
3
3
3
3
3
3
3
3
3
3
3
3
3
3
3
3
3
3
3
3
3
3
3
3
3
3
3
3
3
3
3
3
3
3
POINT_DATA 251
FIELD FieldData 1
DISPLACEMENT 3 251  float
0.0000000e+00 0.0000000e+00 0.0000000e+00 
0.0000000e+00 0.0000000e+00 0.0000000e+00 
0.0000000e+00 -3.8446713e-04 0.0000000e+00 
0.0000000e+00 -7.6887663e-04 0.0000000e+00 
0.0000000e+00 -1.1531707e-03 0.0000000e+00 
0.0000000e+00 -1.5372918e-03 0.0000000e+00 
0.0000000e+00 -1.9211823e-03 0.0000000e+00 
0.0000000e+00 -2.3047843e-03 0.0000000e+00 
0.0000000e+00 -2.6880403e-03 0.0000000e+00 
0.0000000e+00 -3.0708928e-03 0.0000000e+00 
0.0000000e+00 -3.4532836e-03 0.0000000e+00 
0.0000000e+00 -3.8351556e-03 0.0000000e+00 
0.0000000e+00 -4.2164507e-03 0.0000000e+00 
0.0000000e+00 -4.5971116e-03 0.0000000e+00 
0.0000000e+00 -4.9770805e-03 0.0000000e+00 
0.0000000e+00 -5.3562992e-03 0.0000000e+00 
0.0000000e+00 -5.7347110e-03 0.0000000e+00 
0.0000000e+00 -6.1122575e-03 0.0000000e+00 
0.0000000e+00 -6.4888815e-03 0.0000000e+00 
0.0000000e+00 -6.8645249e-03 0.0000000e+00 
0.0000000e+00 -7.2391303e-03 0.0000000e+00 
0.0000000e+00 -7.6126396e-03 0.0000000e+00 
0.0000000e+00 -7.9849958e-03 0.0000000e+00 
0.0000000e+00 -8.3561409e-03 0.0000000e+00 
0.0000000e+00 -8.7260166e-03 0.0000000e+00 
0.0000000e+00 -9.0945670e-03 0.0000000e+00 
0.0000000e+00 -9.4617326e-03 0.0000000e+00 
0.0000000e+00 -9.8274564e-03 0.0000000e+00 
0.0000000e+00 -1.0191681e-02 0.0000000e+00 
0.0000000e+00 -1.0554348e-02 0.0000000e+00 
0.0000000e+00 -1.0915400e-02 0.0000000e+00 
0.0000000e+00 -1.1274781e-02 0.0000000e+00 
0.0000000e+00 -1.1632430e-02 0.0000000e+00 
0.0000000e+00 -1.1988292e-02 0.0000000e+00 
0.0000000e+00 -1.2342310e-02 0.0000000e+00 
0.0000000e+00 -1.2694423e-02 0.0000000e+00 
0.0000000e+00 -1.3044575e-02 0.0000000e+00 
0.0000000e+00 -1.3392709e-02 0.0000000e+00 
0.0000000e+00 -1.3738767e-02 0.0000000e+00 
0.0000000e+00 -1.4082692e-02 0.0000000e+00 
0.0000000e+00 -1.4424424e-02 0.0000000e+00 
0.0000000e+00 -1.4763908e-02 0.0000000e+00 
0.0000000e+00 -1.5101084e-02 0.0000000e+00 
0.0000000e+00 -1.5435896e-02 0.0000000e+00 
0.0000000e+00 -1.5768286e-02 0.0000000e+00 
0.0000000e+00 -1.6098196e-02 0.0000000e+00 
0.0000000e+00 -1.6425569e-02 0.0000000e+00 
0.0000000e+00 -1.6750345e-02 0.0000000e+00 
0.0000000e+00 -1.7072469e-02 0.0000000e+00 
0.0000000e+00 -1.7391883e-02 0.0000000e+00 
0.0000000e+00 -1.7708529e-02 0.0000000e+00 
0.0000000e+00 -1.8022347e-02 0.0000000e+00 
0.0000000e+00 -1.8333284e-02 0.0000000e+00 
0.0000000e+00 -1.8641278e-02 0.0000000e+00 
0.0000000e+00 -1.8946273e-02 0.0000000e+00 
0.0000000e+00 -1.9248214e-02 0.0000000e+00 
0.0000000e+00 -1.9547038e-02 0.0000000e+00 
0.0000000e+00 -1.9842692e-02 0.0000000e+00 
0.0000000e+00 -2.0135114e-02 0.0000000e+00 
0.0000000e+00 -2.0424251e-02 0.0000000e+00 
0.0000000e+00 -2.0710042e-02 0.0000000e+00 
0.0000000e+00 -2.0992430e-02 0.0000000e+00 
0.0000000e+00 -2.1271359e-02 0.0000000e+00 
0.0000000e+00 -2.1546770e-02 0.0000000e+00 
0.0000000e+00 -2.1818604e-02 0.0000000e+00 
0.0000000e+00 -2.2086805e-02 0.0000000e+00 
0.0000000e+00 -2.2351315e-02 0.0000000e+00 
0.0000000e+00 -2.2612078e-02 0.0000000e+00 
0.0000000e+00 -2.2869032e-02 0.0000000e+00 
0.0000000e+00 -2.3122124e-02 0.0000000e+00 
0.0000000e+00 -2.3371294e-02 0.0000000e+00 
0.0000000e+00 -2.3616485e-02 0.0000000e+00 
0.0000000e+00 -2.3857638e-02 0.0000000e+00 
0.0000000e+00 -2.4094697e-02 0.0000000e+00 
0.0000000e+00 -2.4327602e-02 0.0000000e+00 
0.0000000e+00 -2.4556300e-02 0.0000000e+00 
0.0000000e+00 -2.4780728e-02 0.0000000e+00 
0.0000000e+00 -2.5000831e-02 0.0000000e+00 
0.0000000e+00 -2.5216551e-02 0.0000000e+00 
0.0000000e+00 -2.5427831e-02 0.0000000e+00 
0.0000000e+00 -2.5634613e-02 0.0000000e+00 
0.0000000e+00 -2.5836838e-02 0.0000000e+00 
0.0000000e+00 -2.6034448e-02 0.0000000e+00 
0.0000000e+00 -2.6227389e-02 0.0000000e+00 
0.0000000e+00 -2.6415600e-02 0.0000000e+00 
0.0000000e+00 -2.6599023e-02 0.0000000e+00 
0.0000000e+00 -2.6777605e-02 0.0000000e+00 
0.0000000e+00 -2.6951281e-02 0.0000000e+00 
0.0000000e+00 -2.7120000e-02 0.0000000e+00 
0.0000000e+00 -2.7283700e-02 0.0000000e+00 
0.0000000e+00 -2.7442327e-02 0.0000000e+00 
0.0000000e+00 -2.7595818e-02 0.0000000e+00 
0.0000000e+00 -2.7744122e-02 0.0000000e+00 
0.0000000e+00 -2.7887175e-02 0.0000000e+00 
0.0000000e+00 -2.8024923e-02 0.0000000e+00 
0.0000000e+00 -2.8157309e-02 0.0000000e+00 
0.0000000e+00 -2.8284272e-02 0.0000000e+00 
0.0000000e+00 -2.8405758e-02 0.0000000e+00 
0.0000000e+00 -2.8521705e-02 0.0000000e+00 
0.0000000e+00 -2.8632060e-02 0.0000000e+00 
0.0000000e+00 -2.8736763e-02 0.0000000e+00 
0.0000000e+00 -2.8835757e-02 0.0000000e+00 
0.0000000e+00 -2.8928999e-02 0.0000000e+00 
0.0000000e+00 -2.9016512e-02 0.0000000e+00 
0.0000000e+00 -2.9098336e-02 0.0000000e+00 
0.0000000e+00 -2.9174507e-02 0.0000000e+00 
0.0000000e+00 -2.9245064e-02 0.0000000e+00 
0.0000000e+00 -2.9310048e-02 0.0000000e+00 
0.0000000e+00 -2.9369494e-02 0.0000000e+00 
0.0000000e+00 -2.9423442e-02 0.0000000e+00 
0.0000000e+00 -2.9471930e-02 0.0000000e+00 
0.0000000e+00 -2.9514998e-02 0.0000000e+00 
0.0000000e+00 -2.9552683e-02 0.0000000e+00 
0.0000000e+00 -2.9585024e-02 0.0000000e+00 
0.0000000e+00 -2.9612061e-02 0.0000000e+00 
0.0000000e+00 -2.9633828e-02 0.0000000e+00 
0.0000000e+00 -2.9650366e-02 0.0000000e+00 
0.0000000e+00 -2.9661715e-02 0.0000000e+00 
0.0000000e+00 -2.9667912e-02 0.0000000e+00 
0.0000000e+00 -2.9668994e-02 0.0000000e+00 
0.0000000e+00 -2.9665003e-02 0.0000000e+00 
0.0000000e+00 -2.9655972e-02 0.0000000e+00 
0.0000000e+00 -2.9641947e-02 0.0000000e+00 
0.0000000e+00 -2.9622959e-02 0.0000000e+00 
0.0000000e+00 -2.9599052e-02 0.0000000e+00 
0.0000000e+00 -2.9570261e-02 0.0000000e+00 
0.0000000e+00 -2.9536625e-02 0.0000000e+00 
0.0000000e+00 -2.9498184e-02 0.0000000e+00 
0.0000000e+00 -2.9454974e-02 0.0000000e+00 
0.0000000e+00 -2.9407037e-02 0.0000000e+00 
0.0000000e+00 -2.9354408e-02 0.0000000e+00 
0.0000000e+00 -2.9297128e-02 0.0000000e+00 
0.0000000e+00 -2.9235234e-02 0.0000000e+00 
0.0000000e+00 -2.9168764e-02 0.0000000e+00 
0.0000000e+00 -2.9097758e-02 0.0000000e+00 
0.0000000e+00 -2.9022254e-02 0.0000000e+00 
0.0000000e+00 -2.8942289e-02 0.0000000e+00 
0.0000000e+00 -2.8857902e-02 0.0000000e+00 
0.0000000e+00 -2.8769134e-02 0.0000000e+00 
0.0000000e+00 -2.8676020e-02 0.0000000e+00 
0.0000000e+00 -2.8578600e-02 0.0000000e+00 
0.0000000e+00 -2.8476911e-02 0.0000000e+00 
0.0000000e+00 -2.8370995e-02 0.0000000e+00 
0.0000000e+00 -2.8260887e-02 0.0000000e+00 
0.0000000e+00 -2.8146626e-02 0.0000000e+00 
0.0000000e+00 -2.8028253e-02 0.0000000e+00 
0.0000000e+00 -2.7905803e-02 0.0000000e+00 
0.0000000e+00 -2.7779317e-02 0.0000000e+00 
0.0000000e+00 -2.7648833e-02 0.0000000e+00 
0.0000000e+00 -2.7514387e-02 0.0000000e+00 
0.0000000e+00 -2.7376020e-02 0.0000000e+00 
0.0000000e+00 -2.7233770e-02 0.0000000e+00 
0.0000000e+00 -2.7087675e-02 0.0000000e+00 
0.0000000e+00 -2.6937773e-02 0.0000000e+00 
0.0000000e+00 -2.6784105e-02 0.0000000e+00 
0.0000000e+00 -2.6626706e-02 0.0000000e+00 
0.0000000e+00 -2.6465617e-02 0.0000000e+00 
0.0000000e+00 -2.6300875e-02 0.0000000e+00 
0.0000000e+00 -2.6132520e-02 0.0000000e+00 
0.0000000e+00 -2.5960589e-02 0.0000000e+00 
0.0000000e+00 -2.5785118e-02 0.0000000e+00 
0.0000000e+00 -2.5606152e-02 0.0000000e+00 
0.0000000e+00 -2.5423724e-02 0.0000000e+00 
0.0000000e+00 -2.5237875e-02 0.0000000e+00 
0.0000000e+00 -2.5048641e-02 0.0000000e+00 
0.0000000e+00 -2.4856063e-02 0.0000000e+00 
0.0000000e+00 -2.4660179e-02 0.0000000e+00 
0.0000000e+00 -2.4461025e-02 0.0000000e+00 
0.0000000e+00 -2.4258643e-02 0.0000000e+00 
0.0000000e+00 -2.4053071e-02 0.0000000e+00 
0.0000000e+00 -2.3844345e-02 0.0000000e+00 
0.0000000e+00 -2.3632504e-02 0.0000000e+00 
0.0000000e+00 -2.3417588e-02 0.0000000e+00 
0.0000000e+00 -2.3199635e-02 0.0000000e+00 
0.0000000e+00 -2.2978682e-02 0.0000000e+00 
0.0000000e+00 -2.2754770e-02 0.0000000e+00 
0.0000000e+00 -2.2527935e-02 0.0000000e+00 
0.0000000e+00 -2.2298217e-02 0.0000000e+00 
0.0000000e+00 -2.2065653e-02 0.0000000e+00 
0.0000000e+00 -2.1830283e-02 0.0000000e+00 
0.0000000e+00 -2.1592144e-02 0.0000000e+00 
0.0000000e+00 -2.1351276e-02 0.0000000e+00 
0.0000000e+00 -2.1107716e-02 0.0000000e+00 
0.0000000e+00 -2.0861503e-02 0.0000000e+00 
0.0000000e+00 -2.0612676e-02 0.0000000e+00 
0.0000000e+00 -2.0361274e-02 0.0000000e+00 
0.0000000e+00 -2.0107333e-02 0.0000000e+00 
0.0000000e+00 -1.9850893e-02 0.0000000e+00 
0.0000000e+00 -1.9591993e-02 0.0000000e+00 
0.0000000e+00 -1.9330671e-02 0.0000000e+00 
0.0000000e+00 -1.9066965e-02 0.0000000e+00 
0.0000000e+00 -1.8800912e-02 0.0000000e+00 
0.0000000e+00 -1.8532556e-02 0.0000000e+00 
0.0000000e+00 -1.8261928e-02 0.0000000e+00 
0.0000000e+00 -1.7989071e-02 0.0000000e+00 
0.0000000e+00 -1.7714024e-02 0.0000000e+00 
0.0000000e+00 -1.7436821e-02 0.0000000e+00 
0.0000000e+00 -1.7157506e-02 0.0000000e+00 
0.0000000e+00 -1.6876113e-02 0.0000000e+00 
0.0000000e+00 -1.6592683e-02 0.0000000e+00 
0.0000000e+00 -1.6307255e-02 0.0000000e+00 
0.0000000e+00 -1.6019864e-02 0.0000000e+00 
0.0000000e+00 -1.5730552e-02 0.0000000e+00 
0.0000000e+00 -1.5439356e-02 0.0000000e+00 
0.0000000e+00 -1.5146314e-02 0.0000000e+00 
0.0000000e+00 -1.4851466e-02 0.0000000e+00 
0.0000000e+00 -1.4554848e-02 0.0000000e+00 
0.0000000e+00 -1.4256501e-02 0.0000000e+00 
0.0000000e+00 -1.3956461e-02 0.0000000e+00 
0.0000000e+00 -1.3654768e-02 0.0000000e+00 
0.0000000e+00 -1.3351462e-02 0.0000000e+00 
0.0000000e+00 -1.3046578e-02 0.0000000e+00 
0.0000000e+00 -1.2740157e-02 0.0000000e+00 
0.0000000e+00 -1.2432235e-02 0.0000000e+00 
0.0000000e+00 -1.2122853e-02 0.0000000e+00 
0.0000000e+00 -1.1812049e-02 0.0000000e+00 
0.0000000e+00 -1.1499859e-02 0.0000000e+00 
0.0000000e+00 -1.1186325e-02 0.0000000e+00 
0.0000000e+00 -1.0871484e-02 0.0000000e+00 
0.0000000e+00 -1.0555374e-02 0.0000000e+00 
0.0000000e+00 -1.0238033e-02 0.0000000e+00 
0.0000000e+00 -9.9195000e-03 0.0000000e+00 
0.0000000e+00 -9.5998142e-03 0.0000000e+00 
0.0000000e+00 -9.2790136e-03 0.0000000e+00 
0.0000000e+00 -8.9571355e-03 0.0000000e+00 
0.0000000e+00 -8.6342199e-03 0.0000000e+00 
0.0000000e+00 -8.3103050e-03 0.0000000e+00 
0.0000000e+00 -7.9854280e-03 0.0000000e+00 
0.0000000e+00 -7.6596290e-03 0.0000000e+00 
0.0000000e+00 -7.3329457e-03 0.0000000e+00 
0.0000000e+00 -7.0054163e-03 0.0000000e+00 
0.0000000e+00 -6.6770795e-03 0.0000000e+00 
0.0000000e+00 -6.3479738e-03 0.0000000e+00 
0.0000000e+00 -6.0181376e-03 0.0000000e+00 
0.0000000e+00 -5.6876093e-03 0.0000000e+00 
0.0000000e+00 -5.3564277e-03 0.0000000e+00 
0.0000000e+00 -5.0246306e-03 0.0000000e+00 
0.0000000e+00 -4.6922569e-03 0.0000000e+00 
0.0000000e+00 -4.3593450e-03 0.0000000e+00 
0.0000000e+00 -4.0259329e-03 0.0000000e+00 
0.0000000e+00 -3.6920598e-03 0.0000000e+00 
0.0000000e+00 -3.3577636e-03 0.0000000e+00 
0.0000000e+00 -3.0230831e-03 0.0000000e+00 
0.0000000e+00 -2.6880563e-03 0.0000000e+00 
0.0000000e+00 -2.3527222e-03 0.0000000e+00 
0.0000000e+00 -2.0171187e-03 0.0000000e+00 
0.0000000e+00 -1.6812847e-03 0.0000000e+00 
0.0000000e+00 -1.3452586e-03 0.0000000e+00 
0.0000000e+00 -1.0090785e-03 0.0000000e+00 
0.0000000e+00 -6.7278306e-04 0.0000000e+00 
0.0000000e+00 -3.3641074e-04 0.0000000e+00 
CELL_DATA 250
FIELD FieldData 0
