# vtk DataFile Version 4.0
vtk output
ASCII
DATASET UNSTRUCTURED_GRID
POINTS 251 float
0.0000000e+00 0.0000000e+00 0.0000000e+00 
2.5000000e+01 0.0000000e+00 0.0000000e+00 
1.0000000e-01 0.0000000e+00 0.0000000e+00 
2.0000000e-01 0.0000000e+00 0.0000000e+00 
3.0000001e-01 0.0000000e+00 0.0000000e+00 
4.0000001e-01 0.0000000e+00 0.0000000e+00 
5.0000000e-01 0.0000000e+00 0.0000000e+00 
6.0000002e-01 0.0000000e+00 0.0000000e+00 
6.9999999e-01 0.0000000e+00 0.0000000e+00 
8.0000001e-01 0.0000000e+00 0.0000000e+00 
8.9999998e-01 0.0000000e+00 0.0000000e+00 
1.0000000e+00 0.0000000e+00 0.0000000e+00 
1.1000000e+00 0.0000000e+00 0.0000000e+00 
1.2000000e+00 0.0000000e+00 0.0000000e+00 
1.3000000e+00 0.0000000e+00 0.0000000e+00 
1.4000000e+00 0.0000000e+00 0.0000000e+00 
1.5000000e+00 0.0000000e+00 0.0000000e+00 
1.6000000e+00 0.0000000e+00 0.0000000e+00 
1.7000000e+00 0.0000000e+00 0.0000000e+00 
1.8000000e+00 0.0000000e+00 0.0000000e+00 
1.9000000e+00 0.0000000e+00 0.0000000e+00 
2.0000000e+00 0.0000000e+00 0.0000000e+00 
2.0999999e+00 0.0000000e+00 0.0000000e+00 
2.2000000e+00 0.0000000e+00 0.0000000e+00 
2.3000000e+00 0.0000000e+00 0.0000000e+00 
2.4000001e+00 0.0000000e+00 0.0000000e+00 
2.5000000e+00 0.0000000e+00 0.0000000e+00 
2.5999999e+00 0.0000000e+00 0.0000000e+00 
2.7000000e+00 0.0000000e+00 0.0000000e+00 
2.8000000e+00 0.0000000e+00 0.0000000e+00 
2.9000001e+00 0.0000000e+00 0.0000000e+00 
3.0000000e+00 0.0000000e+00 0.0000000e+00 
3.0999999e+00 0.0000000e+00 0.0000000e+00 
3.2000000e+00 0.0000000e+00 0.0000000e+00 
3.3000000e+00 0.0000000e+00 0.0000000e+00 
3.4000001e+00 0.0000000e+00 0.0000000e+00 
3.5000000e+00 0.0000000e+00 0.0000000e+00 
3.5999999e+00 0.0000000e+00 0.0000000e+00 
3.7000000e+00 0.0000000e+00 0.0000000e+00 
3.8000000e+00 0.0000000e+00 0.0000000e+00 
3.9000001e+00 0.0000000e+00 0.0000000e+00 
4.0000000e+00 0.0000000e+00 0.0000000e+00 
4.0999999e+00 0.0000000e+00 0.0000000e+00 
4.1999998e+00 0.0000000e+00 0.0000000e+00 
4.3000002e+00 0.0000000e+00 0.0000000e+00 
4.4000001e+00 0.0000000e+00 0.0000000e+00 
4.5000000e+00 0.0000000e+00 0.0000000e+00 
4.5999999e+00 0.0000000e+00 0.0000000e+00 
4.6999998e+00 0.0000000e+00 0.0000000e+00 
4.8000002e+00 0.0000000e+00 0.0000000e+00 
4.9000001e+00 0.0000000e+00 0.0000000e+00 
5.0000000e+00 0.0000000e+00 0.0000000e+00 
5.0999999e+00 0.0000000e+00 0.0000000e+00 
5.1999998e+00 0.0000000e+00 0.0000000e+00 
5.3000002e+00 0.0000000e+00 0.0000000e+00 
5.4000001e+00 0.0000000e+00 0.0000000e+00 
5.5000000e+00 0.0000000e+00 0.0000000e+00 
5.5999999e+00 0.0000000e+00 0.0000000e+00 
5.6999998e+00 0.0000000e+00 0.0000000e+00 
5.8000002e+00 0.0000000e+00 0.0000000e+00 
5.9000001e+00 0.0000000e+00 0.0000000e+00 
6.0000000e+00 0.0000000e+00 0.0000000e+00 
6.0999999e+00 0.0000000e+00 0.0000000e+00 
6.1999998e+00 0.0000000e+00 0.0000000e+00 
6.3000002e+00 0.0000000e+00 0.0000000e+00 
6.4000001e+00 0.0000000e+00 0.0000000e+00 
6.5000000e+00 0.0000000e+00 0.0000000e+00 
6.5999999e+00 0.0000000e+00 0.0000000e+00 
6.6999998e+00 0.0000000e+00 0.0000000e+00 
6.8000002e+00 0.0000000e+00 0.0000000e+00 
6.9000001e+00 0.0000000e+00 0.0000000e+00 
7.0000000e+00 0.0000000e+00 0.0000000e+00 
7.0999999e+00 0.0000000e+00 0.0000000e+00 
7.1999998e+00 0.0000000e+00 0.0000000e+00 
7.3000002e+00 0.0000000e+00 0.0000000e+00 
7.4000001e+00 0.0000000e+00 0.0000000e+00 
7.5000000e+00 0.0000000e+00 0.0000000e+00 
7.5999999e+00 0.0000000e+00 0.0000000e+00 
7.6999998e+00 0.0000000e+00 0.0000000e+00 
7.8000002e+00 0.0000000e+00 0.0000000e+00 
7.9000001e+00 0.0000000e+00 0.0000000e+00 
8.0000000e+00 0.0000000e+00 0.0000000e+00 
8.1000004e+00 0.0000000e+00 0.0000000e+00 
8.1999998e+00 0.0000000e+00 0.0000000e+00 
8.3000002e+00 0.0000000e+00 0.0000000e+00 
8.3999996e+00 0.0000000e+00 0.0000000e+00 
8.5000000e+00 0.0000000e+00 0.0000000e+00 
8.6000004e+00 0.0000000e+00 0.0000000e+00 
8.6999998e+00 0.0000000e+00 0.0000000e+00 
8.8000002e+00 0.0000000e+00 0.0000000e+00 
8.8999996e+00 0.0000000e+00 0.0000000e+00 
9.0000000e+00 0.0000000e+00 0.0000000e+00 
9.1000004e+00 0.0000000e+00 0.0000000e+00 
9.1999998e+00 0.0000000e+00 0.0000000e+00 
9.3000002e+00 0.0000000e+00 0.0000000e+00 
9.3999996e+00 0.0000000e+00 0.0000000e+00 
9.5000000e+00 0.0000000e+00 0.0000000e+00 
9.6000004e+00 0.0000000e+00 0.0000000e+00 
9.6999998e+00 0.0000000e+00 0.0000000e+00 
9.8000002e+00 0.0000000e+00 0.0000000e+00 
9.8999996e+00 0.0000000e+00 0.0000000e+00 
1.0000000e+01 0.0000000e+00 0.0000000e+00 
1.0100000e+01 0.0000000e+00 0.0000000e+00 
1.0200000e+01 0.0000000e+00 0.0000000e+00 
1.0300000e+01 0.0000000e+00 0.0000000e+00 
1.0400000e+01 0.0000000e+00 0.0000000e+00 
1.0500000e+01 0.0000000e+00 0.0000000e+00 
1.0600000e+01 0.0000000e+00 0.0000000e+00 
1.0700000e+01 0.0000000e+00 0.0000000e+00 
1.0800000e+01 0.0000000e+00 0.0000000e+00 
1.0900000e+01 0.0000000e+00 0.0000000e+00 
1.1000000e+01 0.0000000e+00 0.0000000e+00 
1.1100000e+01 0.0000000e+00 0.0000000e+00 
1.1200000e+01 0.0000000e+00 0.0000000e+00 
1.1300000e+01 0.0000000e+00 0.0000000e+00 
1.1400000e+01 0.0000000e+00 0.0000000e+00 
1.1500000e+01 0.0000000e+00 0.0000000e+00 
1.1600000e+01 0.0000000e+00 0.0000000e+00 
1.1700000e+01 0.0000000e+00 0.0000000e+00 
1.1800000e+01 0.0000000e+00 0.0000000e+00 
1.1900000e+01 0.0000000e+00 0.0000000e+00 
1.2000000e+01 0.0000000e+00 0.0000000e+00 
1.2100000e+01 0.0000000e+00 0.0000000e+00 
1.2200000e+01 0.0000000e+00 0.0000000e+00 
1.2300000e+01 0.0000000e+00 0.0000000e+00 
1.2400000e+01 0.0000000e+00 0.0000000e+00 
1.2500000e+01 0.0000000e+00 0.0000000e+00 
1.2600000e+01 0.0000000e+00 0.0000000e+00 
1.2700000e+01 0.0000000e+00 0.0000000e+00 
1.2800000e+01 0.0000000e+00 0.0000000e+00 
1.2900000e+01 0.0000000e+00 0.0000000e+00 
1.3000000e+01 0.0000000e+00 0.0000000e+00 
1.3100000e+01 0.0000000e+00 0.0000000e+00 
1.3200000e+01 0.0000000e+00 0.0000000e+00 
1.3300000e+01 0.0000000e+00 0.0000000e+00 
1.3400000e+01 0.0000000e+00 0.0000000e+00 
1.3500000e+01 0.0000000e+00 0.0000000e+00 
1.3600000e+01 0.0000000e+00 0.0000000e+00 
1.3700000e+01 0.0000000e+00 0.0000000e+00 
1.3800000e+01 0.0000000e+00 0.0000000e+00 
1.3900000e+01 0.0000000e+00 0.0000000e+00 
1.4000000e+01 0.0000000e+00 0.0000000e+00 
1.4100000e+01 0.0000000e+00 0.0000000e+00 
1.4200000e+01 0.0000000e+00 0.0000000e+00 
1.4300000e+01 0.0000000e+00 0.0000000e+00 
1.4400000e+01 0.0000000e+00 0.0000000e+00 
1.4500000e+01 0.0000000e+00 0.0000000e+00 
1.4600000e+01 0.0000000e+00 0.0000000e+00 
1.4700000e+01 0.0000000e+00 0.0000000e+00 
1.4800000e+01 0.0000000e+00 0.0000000e+00 
1.4900000e+01 0.0000000e+00 0.0000000e+00 
1.5000000e+01 0.0000000e+00 0.0000000e+00 
1.5100000e+01 0.0000000e+00 0.0000000e+00 
1.5200000e+01 0.0000000e+00 0.0000000e+00 
1.5300000e+01 0.0000000e+00 0.0000000e+00 
1.5400000e+01 0.0000000e+00 0.0000000e+00 
1.5500000e+01 0.0000000e+00 0.0000000e+00 
1.5600000e+01 0.0000000e+00 0.0000000e+00 
1.5700000e+01 0.0000000e+00 0.0000000e+00 
1.5800000e+01 0.0000000e+00 0.0000000e+00 
1.5900000e+01 0.0000000e+00 0.0000000e+00 
1.6000000e+01 0.0000000e+00 0.0000000e+00 
1.6100000e+01 0.0000000e+00 0.0000000e+00 
1.6200001e+01 0.0000000e+00 0.0000000e+00 
1.6299999e+01 0.0000000e+00 0.0000000e+00 
1.6400000e+01 0.0000000e+00 0.0000000e+00 
1.6500000e+01 0.0000000e+00 0.0000000e+00 
1.6600000e+01 0.0000000e+00 0.0000000e+00 
1.6700001e+01 0.0000000e+00 0.0000000e+00 
1.6799999e+01 0.0000000e+00 0.0000000e+00 
1.6900000e+01 0.0000000e+00 0.0000000e+00 
1.7000000e+01 0.0000000e+00 0.0000000e+00 
1.7100000e+01 0.0000000e+00 0.0000000e+00 
1.7200001e+01 0.0000000e+00 0.0000000e+00 
1.7299999e+01 0.0000000e+00 0.0000000e+00 
1.7400000e+01 0.0000000e+00 0.0000000e+00 
1.7500000e+01 0.0000000e+00 0.0000000e+00 
1.7600000e+01 0.0000000e+00 0.0000000e+00 
1.7700001e+01 0.0000000e+00 0.0000000e+00 
1.7799999e+01 0.0000000e+00 0.0000000e+00 
1.7900000e+01 0.0000000e+00 0.0000000e+00 
1.8000000e+01 0.0000000e+00 0.0000000e+00 
1.8100000e+01 0.0000000e+00 0.0000000e+00 
1.8200001e+01 0.0000000e+00 0.0000000e+00 
1.8299999e+01 0.0000000e+00 0.0000000e+00 
1.8400000e+01 0.0000000e+00 0.0000000e+00 
1.8500000e+01 0.0000000e+00 0.0000000e+00 
1.8600000e+01 0.0000000e+00 0.0000000e+00 
1.8700001e+01 0.0000000e+00 0.0000000e+00 
1.8799999e+01 0.0000000e+00 0.0000000e+00 
1.8900000e+01 0.0000000e+00 0.0000000e+00 
1.9000000e+01 0.0000000e+00 0.0000000e+00 
1.9100000e+01 0.0000000e+00 0.0000000e+00 
1.9200001e+01 0.0000000e+00 0.0000000e+00 
1.9299999e+01 0.0000000e+00 0.0000000e+00 
1.9400000e+01 0.0000000e+00 0.0000000e+00 
1.9500000e+01 0.0000000e+00 0.0000000e+00 
1.9600000e+01 0.0000000e+00 0.0000000e+00 
1.9700001e+01 0.0000000e+00 0.0000000e+00 
1.9799999e+01 0.0000000e+00 0.0000000e+00 
1.9900000e+01 0.0000000e+00 0.0000000e+00 
2.0000000e+01 0.0000000e+00 0.0000000e+00 
2.0100000e+01 0.0000000e+00 0.0000000e+00 
2.0200001e+01 0.0000000e+00 0.0000000e+00 
2.0299999e+01 0.0000000e+00 0.0000000e+00 
2.0400000e+01 0.0000000e+00 0.0000000e+00 
2.0500000e+01 0.0000000e+00 0.0000000e+00 
2.0600000e+01 0.0000000e+00 0.0000000e+00 
2.0700001e+01 0.0000000e+00 0.0000000e+00 
2.0799999e+01 0.0000000e+00 0.0000000e+00 
2.0900000e+01 0.0000000e+00 0.0000000e+00 
2.1000000e+01 0.0000000e+00 0.0000000e+00 
2.1100000e+01 0.0000000e+00 0.0000000e+00 
2.1200001e+01 0.0000000e+00 0.0000000e+00 
2.1299999e+01 0.0000000e+00 0.0000000e+00 
2.1400000e+01 0.0000000e+00 0.0000000e+00 
2.1500000e+01 0.0000000e+00 0.0000000e+00 
2.1600000e+01 0.0000000e+00 0.0000000e+00 
2.1700001e+01 0.0000000e+00 0.0000000e+00 
2.1799999e+01 0.0000000e+00 0.0000000e+00 
2.1900000e+01 0.0000000e+00 0.0000000e+00 
2.2000000e+01 0.0000000e+00 0.0000000e+00 
2.2100000e+01 0.0000000e+00 0.0000000e+00 
2.2200001e+01 0.0000000e+00 0.0000000e+00 
2.2299999e+01 0.0000000e+00 0.0000000e+00 
2.2400000e+01 0.0000000e+00 0.0000000e+00 
2.2500000e+01 0.0000000e+00 0.0000000e+00 
2.2600000e+01 0.0000000e+00 0.0000000e+00 
2.2700001e+01 0.0000000e+00 0.0000000e+00 
2.2799999e+01 0.0000000e+00 0.0000000e+00 
2.2900000e+01 0.0000000e+00 0.0000000e+00 
2.3000000e+01 0.0000000e+00 0.0000000e+00 
2.3100000e+01 0.0000000e+00 0.0000000e+00 
2.3200001e+01 0.0000000e+00 0.0000000e+00 
2.3299999e+01 0.0000000e+00 0.0000000e+00 
2.3400000e+01 0.0000000e+00 0.0000000e+00 
2.3500000e+01 0.0000000e+00 0.0000000e+00 
2.3600000e+01 0.0000000e+00 0.0000000e+00 
2.3700001e+01 0.0000000e+00 0.0000000e+00 
2.3799999e+01 0.0000000e+00 0.0000000e+00 
2.3900000e+01 0.0000000e+00 0.0000000e+00 
2.4000000e+01 0.0000000e+00 0.0000000e+00 
2.4100000e+01 0.0000000e+00 0.0000000e+00 
2.4200001e+01 0.0000000e+00 0.0000000e+00 
2.4299999e+01 0.0000000e+00 0.0000000e+00 
2.4400000e+01 0.0000000e+00 0.0000000e+00 
2.4500000e+01 0.0000000e+00 0.0000000e+00 
2.4600000e+01 0.0000000e+00 0.0000000e+00 
2.4700001e+01 0.0000000e+00 0.0000000e+00 
2.4799999e+01 0.0000000e+00 0.0000000e+00 
2.4900000e+01 0.0000000e+00 0.0000000e+00 

CELLS 250 750
2 0 2
2 2 3
2 3 4
2 4 5
2 5 6
2 6 7
2 7 8
2 8 9
2 9 10
2 10 11
2 11 12
2 12 13
2 13 14
2 14 15
2 15 16
2 16 17
2 17 18
2 18 19
2 19 20
2 20 21
2 21 22
2 22 23
2 23 24
2 24 25
2 25 26
2 26 27
2 27 28
2 28 29
2 29 30
2 30 31
2 31 32
2 32 33
2 33 34
2 34 35
2 35 36
2 36 37
2 37 38
2 38 39
2 39 40
2 40 41
2 41 42
2 42 43
2 43 44
2 44 45
2 45 46
2 46 47
2 47 48
2 48 49
2 49 50
2 50 51
2 51 52
2 52 53
2 53 54
2 54 55
2 55 56
2 56 57
2 57 58
2 58 59
2 59 60
2 60 61
2 61 62
2 62 63
2 63 64
2 64 65
2 65 66
2 66 67
2 67 68
2 68 69
2 69 70
2 70 71
2 71 72
2 72 73
2 73 74
2 74 75
2 75 76
2 76 77
2 77 78
2 78 79
2 79 80
2 80 81
2 81 82
2 82 83
2 83 84
2 84 85
2 85 86
2 86 87
2 87 88
2 88 89
2 89 90
2 90 91
2 91 92
2 92 93
2 93 94
2 94 95
2 95 96
2 96 97
2 97 98
2 98 99
2 99 100
2 100 101
2 101 102
2 102 103
2 103 104
2 104 105
2 105 106
2 106 107
2 107 108
2 108 109
2 109 110
2 110 111
2 111 112
2 112 113
2 113 114
2 114 115
2 115 116
2 116 117
2 117 118
2 118 119
2 119 120
2 120 121
2 121 122
2 122 123
2 123 124
2 124 125
2 125 126
2 126 127
2 127 128
2 128 129
2 129 130
2 130 131
2 131 132
2 132 133
2 133 134
2 134 135
2 135 136
2 136 137
2 137 138
2 138 139
2 139 140
2 140 141
2 141 142
2 142 143
2 143 144
2 144 145
2 145 146
2 146 147
2 147 148
2 148 149
2 149 150
2 150 151
2 151 152
2 152 153
2 153 154
2 154 155
2 155 156
2 156 157
2 157 158
2 158 159
2 159 160
2 160 161
2 161 162
2 162 163
2 163 164
2 164 165
2 165 166
2 166 167
2 167 168
2 168 169
2 169 170
2 170 171
2 171 172
2 172 173
2 173 174
2 174 175
2 175 176
2 176 177
2 177 178
2 178 179
2 179 180
2 180 181
2 181 182
2 182 183
2 183 184
2 184 185
2 185 186
2 186 187
2 187 188
2 188 189
2 189 190
2 190 191
2 191 192
2 192 193
2 193 194
2 194 195
2 195 196
2 196 197
2 197 198
2 198 199
2 199 200
2 200 201
2 201 202
2 202 203
2 203 204
2 204 205
2 205 206
2 206 207
2 207 208
2 208 209
2 209 210
2 210 211
2 211 212
2 212 213
2 213 214
2 214 215
2 215 216
2 216 217
2 217 218
2 218 219
2 219 220
2 220 221
2 221 222
2 222 223
2 223 224
2 224 225
2 225 226
2 226 227
2 227 228
2 228 229
2 229 230
2 230 231
2 231 232
2 232 233
2 233 234
2 234 235
2 235 236
2 236 237
2 237 238
2 238 239
2 239 240
2 240 241
2 241 242
2 242 243
2 243 244
2 244 245
2 245 246
2 246 247
2 247 248
2 248 249
2 249 250
2 250 1

CELL_TYPES 250
3
3
3
3
3
3
3
3
3
3
3
3
3
3
3
3
3
3
3
3
3
3
3
3
3
3
3
3
3
3
3
3
3
3
3
3
3
3
3
3
3
3
3
3
3
3
3
3
3
3
3
3
3
3
3
3
3
3
3
3
3
3
3
3
3
3
3
3
3
3
3
3
3
3
3
3
3
3
3
3
3
3
3
3
3
3
3
3
3
3
3
3
3
3
3
3
3
3
3
3
3
3
3
3
3
3
3
3
3
3
3
3
3
3
3
3
3
3
3
3
3
3
3
3
3
3
3
3
3
3
3
3
3
3
3
3
3
3
3
3
3
3
3
3
3
3
3
3
3
3
3
3
3
3
3
3
3
3
3
3
3
3
3
3
3
3
3
3
3
3
3
3
3
3
3
3
3
3
3
3
3
3
3
3
3
3
3
3
3
3
3
3
3
3
3
3
3
3
3
3
3
3
3
3
3
3
3
3
3
3
3
3
3
3
3
3
3
3
3
3
3
3
3
3
3
3
3
3
3
3
3
3
3
3
3
3
3
3
3
3
3
3
3
3
3
3
3
3
3
3
POINT_DATA 251
FIELD FieldData 1
DISPLACEMENT 3 251  float
0.0000000e+00 0.0000000e+00 0.0000000e+00 
0.0000000e+00 0.0000000e+00 0.0000000e+00 
0.0000000e+00 -3.6219443e-04 0.0000000e+00 
0.0000000e+00 -7.2434504e-04 0.0000000e+00 
0.0000000e+00 -1.0864079e-03 0.0000000e+00 
0.0000000e+00 -1.4483393e-03 0.0000000e+00 
0.0000000e+00 -1.8100954e-03 0.0000000e+00 
0.0000000e+00 -2.1716321e-03 0.0000000e+00 
0.0000000e+00 -2.5329059e-03 0.0000000e+00 
0.0000000e+00 -2.8938728e-03 0.0000000e+00 
0.0000000e+00 -3.2544890e-03 0.0000000e+00 
0.0000000e+00 -3.6147106e-03 0.0000000e+00 
0.0000000e+00 -3.9744941e-03 0.0000000e+00 
0.0000000e+00 -4.3337946e-03 0.0000000e+00 
0.0000000e+00 -4.6925694e-03 0.0000000e+00 
0.0000000e+00 -5.0507747e-03 0.0000000e+00 
0.0000000e+00 -5.4083657e-03 0.0000000e+00 
0.0000000e+00 -5.7652993e-03 0.0000000e+00 
0.0000000e+00 -6.1215311e-03 0.0000000e+00 
0.0000000e+00 -6.4770179e-03 0.0000000e+00 
0.0000000e+00 -6.8317153e-03 0.0000000e+00 
0.0000000e+00 -7.1855797e-03 0.0000000e+00 
0.0000000e+00 -7.5385678e-03 0.0000000e+00 
0.0000000e+00 -7.8906352e-03 0.0000000e+00 
0.0000000e+00 -8.2417373e-03 0.0000000e+00 
0.0000000e+00 -8.5918317e-03 0.0000000e+00 
0.0000000e+00 -8.9408737e-03 0.0000000e+00 
0.0000000e+00 -9.2888195e-03 0.0000000e+00 
0.0000000e+00 -9.6356254e-03 0.0000000e+00 
0.0000000e+00 -9.9812476e-03 0.0000000e+00 
0.0000000e+00 -1.0325642e-02 0.0000000e+00 
0.0000000e+00 -1.0668765e-02 0.0000000e+00 
0.0000000e+00 -1.1010573e-02 0.0000000e+00 
0.0000000e+00 -1.1351022e-02 0.0000000e+00 
0.0000000e+00 -1.1690068e-02 0.0000000e+00 
0.0000000e+00 -1.2027667e-02 0.0000000e+00 
0.0000000e+00 -1.2363775e-02 0.0000000e+00 
0.0000000e+00 -1.2698349e-02 0.0000000e+00 
0.0000000e+00 -1.3031344e-02 0.0000000e+00 
0.0000000e+00 -1.3362717e-02 0.0000000e+00 
0.0000000e+00 -1.3692425e-02 0.0000000e+00 
0.0000000e+00 -1.4020422e-02 0.0000000e+00 
0.0000000e+00 -1.4346665e-02 0.0000000e+00 
0.0000000e+00 -1.4671111e-02 0.0000000e+00 
0.0000000e+00 -1.4993715e-02 0.0000000e+00 
0.0000000e+00 -1.5314434e-02 0.0000000e+00 
0.0000000e+00 -1.5633224e-02 0.0000000e+00 
0.0000000e+00 -1.5950041e-02 0.0000000e+00 
0.0000000e+00 -1.6264841e-02 0.0000000e+00 
0.0000000e+00 -1.6577581e-02 0.0000000e+00 
0.0000000e+00 -1.6888214e-02 0.0000000e+00 
0.0000000e+00 -1.7196702e-02 0.0000000e+00 
0.0000000e+00 -1.7502995e-02 0.0000000e+00 
0.0000000e+00 -1.7807053e-02 0.0000000e+00 
0.0000000e+00 -1.8108832e-02 0.0000000e+00 
0.0000000e+00 -1.8408285e-02 0.0000000e+00 
0.0000000e+00 -1.8705372e-02 0.0000000e+00 
0.0000000e+00 -1.9000048e-02 0.0000000e+00 
0.0000000e+00 -1.9292267e-02 0.0000000e+00 
0.0000000e+00 -1.9581988e-02 0.0000000e+00 
0.0000000e+00 -1.9869165e-02 0.0000000e+00 
0.0000000e+00 -2.0153755e-02 0.0000000e+00 
0.0000000e+00 -2.0435715e-02 0.0000000e+00 
0.0000000e+00 -2.0715000e-02 0.0000000e+00 
0.0000000e+00 -2.0991568e-02 0.0000000e+00 
0.0000000e+00 -2.1265373e-02 0.0000000e+00 
0.0000000e+00 -2.1536371e-02 0.0000000e+00 
0.0000000e+00 -2.1804519e-02 0.0000000e+00 
0.0000000e+00 -2.2069773e-02 0.0000000e+00 
0.0000000e+00 -2.2332089e-02 0.0000000e+00 
0.0000000e+00 -2.2591425e-02 0.0000000e+00 
0.0000000e+00 -2.2847734e-02 0.0000000e+00 
0.0000000e+00 -2.3100976e-02 0.0000000e+00 
0.0000000e+00 -2.3351103e-02 0.0000000e+00 
0.0000000e+00 -2.3598073e-02 0.0000000e+00 
0.0000000e+00 -2.3841843e-02 0.0000000e+00 
0.0000000e+00 -2.4082368e-02 0.0000000e+00 
0.0000000e+00 -2.4319604e-02 0.0000000e+00 
0.0000000e+00 -2.4553508e-02 0.0000000e+00 
0.0000000e+00 -2.4784036e-02 0.0000000e+00 
0.0000000e+00 -2.5011145e-02 0.0000000e+00 
0.0000000e+00 -2.5234789e-02 0.0000000e+00 
0.0000000e+00 -2.5454925e-02 0.0000000e+00 
0.0000000e+00 -2.5671510e-02 0.0000000e+00 
0.0000000e+00 -2.5884498e-02 0.0000000e+00 
0.0000000e+00 -2.6093848e-02 0.0000000e+00 
0.0000000e+00 -2.6299516e-02 0.0000000e+00 
0.0000000e+00 -2.6501454e-02 0.0000000e+00 
0.0000000e+00 -2.6699623e-02 0.0000000e+00 
0.0000000e+00 -2.6893979e-02 0.0000000e+00 
0.0000000e+00 -2.7084474e-02 0.0000000e+00 
0.0000000e+00 -2.7271068e-02 0.0000000e+00 
0.0000000e+00 -2.7453715e-02 0.0000000e+00 
0.0000000e+00 -2.7632371e-02 0.0000000e+00 
0.0000000e+00 -2.7806994e-02 0.0000000e+00 
0.0000000e+00 -2.7977539e-02 0.0000000e+00 
0.0000000e+00 -2.8143963e-02 0.0000000e+00 
0.0000000e+00 -2.8306220e-02 0.0000000e+00 
0.0000000e+00 -2.8464269e-02 0.0000000e+00 
0.0000000e+00 -2.8618064e-02 0.0000000e+00 
0.0000000e+00 -2.8767563e-02 0.0000000e+00 
0.0000000e+00 -2.8912719e-02 0.0000000e+00 
0.0000000e+00 -2.9053492e-02 0.0000000e+00 
0.0000000e+00 -2.9189836e-02 0.0000000e+00 
0.0000000e+00 -2.9321708e-02 0.0000000e+00 
0.0000000e+00 -2.9449062e-02 0.0000000e+00 
0.0000000e+00 -2.9571857e-02 0.0000000e+00 
0.0000000e+00 -2.9690050e-02 0.0000000e+00 
0.0000000e+00 -2.9803593e-02 0.0000000e+00 
0.0000000e+00 -2.9912444e-02 0.0000000e+00 
0.0000000e+00 -3.0016558e-02 0.0000000e+00 
0.0000000e+00 -3.0115895e-02 0.0000000e+00 
0.0000000e+00 -3.0210407e-02 0.0000000e+00 
0.0000000e+00 -3.0300053e-02 0.0000000e+00 
0.0000000e+00 -3.0384786e-02 0.0000000e+00 
0.0000000e+00 -3.0464567e-02 0.0000000e+00 
0.0000000e+00 -3.0539347e-02 0.0000000e+00 
0.0000000e+00 -3.0609084e-02 0.0000000e+00 
0.0000000e+00 -3.0673737e-02 0.0000000e+00 
0.0000000e+00 -3.0733258e-02 0.0000000e+00 
0.0000000e+00 -3.0787604e-02 0.0000000e+00 
0.0000000e+00 -3.0836733e-02 0.0000000e+00 
0.0000000e+00 -3.0880593e-02 0.0000000e+00 
0.0000000e+00 -3.0919131e-02 0.0000000e+00 
0.0000000e+00 -3.0952293e-02 0.0000000e+00 
0.0000000e+00 -3.0980032e-02 0.0000000e+00 
0.0000000e+00 -3.1002311e-02 0.0000000e+00 
0.0000000e+00 -3.1019084e-02 0.0000000e+00 
0.0000000e+00 -3.1030308e-02 0.0000000e+00 
0.0000000e+00 -3.1035930e-02 0.0000000e+00 
0.0000000e+00 -3.1035909e-02 0.0000000e+00 
0.0000000e+00 -3.1030204e-02 0.0000000e+00 
0.0000000e+00 -3.1018781e-02 0.0000000e+00 
0.0000000e+00 -3.1001592e-02 0.0000000e+00 
0.0000000e+00 -3.0978585e-02 0.0000000e+00 
0.0000000e+00 -3.0949708e-02 0.0000000e+00 
0.0000000e+00 -3.0914919e-02 0.0000000e+00 
0.0000000e+00 -3.0874195e-02 0.0000000e+00 
0.0000000e+00 -3.0827513e-02 0.0000000e+00 
0.0000000e+00 -3.0774910e-02 0.0000000e+00 
0.0000000e+00 -3.0716436e-02 0.0000000e+00 
0.0000000e+00 -3.0652147e-02 0.0000000e+00 
0.0000000e+00 -3.0582091e-02 0.0000000e+00 
0.0000000e+00 -3.0506324e-02 0.0000000e+00 
0.0000000e+00 -3.0424895e-02 0.0000000e+00 
0.0000000e+00 -3.0337859e-02 0.0000000e+00 
0.0000000e+00 -3.0245267e-02 0.0000000e+00 
0.0000000e+00 -3.0147171e-02 0.0000000e+00 
0.0000000e+00 -3.0043624e-02 0.0000000e+00 
0.0000000e+00 -2.9934678e-02 0.0000000e+00 
0.0000000e+00 -2.9820386e-02 0.0000000e+00 
0.0000000e+00 -2.9700799e-02 0.0000000e+00 
0.0000000e+00 -2.9575970e-02 0.0000000e+00 
0.0000000e+00 -2.9445952e-02 0.0000000e+00 
0.0000000e+00 -2.9310796e-02 0.0000000e+00 
0.0000000e+00 -2.9170558e-02 0.0000000e+00 
0.0000000e+00 -2.9025285e-02 0.0000000e+00 
0.0000000e+00 -2.8875031e-02 0.0000000e+00 
0.0000000e+00 -2.8719850e-02 0.0000000e+00 
0.0000000e+00 -2.8559793e-02 0.0000000e+00 
0.0000000e+00 -2.8394913e-02 0.0000000e+00 
0.0000000e+00 -2.8225262e-02 0.0000000e+00 
0.0000000e+00 -2.8050892e-02 0.0000000e+00 
0.0000000e+00 -2.7871856e-02 0.0000000e+00 
0.0000000e+00 -2.7688207e-02 0.0000000e+00 
0.0000000e+00 -2.7499996e-02 0.0000000e+00 
0.0000000e+00 -2.7307276e-02 0.0000000e+00 
0.0000000e+00 -2.7110100e-02 0.0000000e+00 
0.0000000e+00 -2.6908519e-02 0.0000000e+00 
0.0000000e+00 -2.6702585e-02 0.0000000e+00 
0.0000000e+00 -2.6492352e-02 0.0000000e+00 
0.0000000e+00 -2.6277872e-02 0.0000000e+00 
0.0000000e+00 -2.6059197e-02 0.0000000e+00 
0.0000000e+00 -2.5836378e-02 0.0000000e+00 
0.0000000e+00 -2.5609471e-02 0.0000000e+00 
0.0000000e+00 -2.5378525e-02 0.0000000e+00 
0.0000000e+00 -2.5143595e-02 0.0000000e+00 
0.0000000e+00 -2.4904730e-02 0.0000000e+00 
0.0000000e+00 -2.4661986e-02 0.0000000e+00 
0.0000000e+00 -2.4415413e-02 0.0000000e+00 
0.0000000e+00 -2.4165064e-02 0.0000000e+00 
0.0000000e+00 -2.3910992e-02 0.0000000e+00 
0.0000000e+00 -2.3653248e-02 0.0000000e+00 
0.0000000e+00 -2.3391888e-02 0.0000000e+00 
0.0000000e+00 -2.3126960e-02 0.0000000e+00 
0.0000000e+00 -2.2858517e-02 0.0000000e+00 
0.0000000e+00 -2.2586614e-02 0.0000000e+00 
0.0000000e+00 -2.2311302e-02 0.0000000e+00 
0.0000000e+00 -2.2032633e-02 0.0000000e+00 
0.0000000e+00 -2.1750661e-02 0.0000000e+00 
0.0000000e+00 -2.1465436e-02 0.0000000e+00 
0.0000000e+00 -2.1177011e-02 0.0000000e+00 
0.0000000e+00 -2.0885440e-02 0.0000000e+00 
0.0000000e+00 -2.0590775e-02 0.0000000e+00 
0.0000000e+00 -2.0293068e-02 0.0000000e+00 
0.0000000e+00 -1.9992370e-02 0.0000000e+00 
0.0000000e+00 -1.9688737e-02 0.0000000e+00 
0.0000000e+00 -1.9382216e-02 0.0000000e+00 
0.0000000e+00 -1.9072864e-02 0.0000000e+00 
0.0000000e+00 -1.8760733e-02 0.0000000e+00 
0.0000000e+00 -1.8445874e-02 0.0000000e+00 
0.0000000e+00 -1.8128341e-02 0.0000000e+00 
0.0000000e+00 -1.7808184e-02 0.0000000e+00 
0.0000000e+00 -1.7485457e-02 0.0000000e+00 
0.0000000e+00 -1.7160213e-02 0.0000000e+00 
0.0000000e+00 -1.6832503e-02 0.0000000e+00 
0.0000000e+00 -1.6502379e-02 0.0000000e+00 
0.0000000e+00 -1.6169896e-02 0.0000000e+00 
0.0000000e+00 -1.5835105e-02 0.0000000e+00 
0.0000000e+00 -1.5498058e-02 0.0000000e+00 
0.0000000e+00 -1.5158808e-02 0.0000000e+00 
0.0000000e+00 -1.4817407e-02 0.0000000e+00 
0.0000000e+00 -1.4473909e-02 0.0000000e+00 
0.0000000e+00 -1.4128365e-02 0.0000000e+00 
0.0000000e+00 -1.3780827e-02 0.0000000e+00 
0.0000000e+00 -1.3431348e-02 0.0000000e+00 
0.0000000e+00 -1.3079980e-02 0.0000000e+00 
0.0000000e+00 -1.2726777e-02 0.0000000e+00 
0.0000000e+00 -1.2371792e-02 0.0000000e+00 
0.0000000e+00 -1.2015074e-02 0.0000000e+00 
0.0000000e+00 -1.1656677e-02 0.0000000e+00 
0.0000000e+00 -1.1296655e-02 0.0000000e+00 
0.0000000e+00 -1.0935059e-02 0.0000000e+00 
0.0000000e+00 -1.0571942e-02 0.0000000e+00 
0.0000000e+00 -1.0207355e-02 0.0000000e+00 
0.0000000e+00 -9.8413527e-03 0.0000000e+00 
0.0000000e+00 -9.4739869e-03 0.0000000e+00 
0.0000000e+00 -9.1053089e-03 0.0000000e+00 
0.0000000e+00 -8.7353718e-03 0.0000000e+00 
0.0000000e+00 -8.3642285e-03 0.0000000e+00 
0.0000000e+00 -7.9919314e-03 0.0000000e+00 
0.0000000e+00 -7.6185325e-03 0.0000000e+00 
0.0000000e+00 -7.2440845e-03 0.0000000e+00 
0.0000000e+00 -6.8686395e-03 0.0000000e+00 
0.0000000e+00 -6.4922506e-03 0.0000000e+00 
0.0000000e+00 -6.1149695e-03 0.0000000e+00 
0.0000000e+00 -5.7368497e-03 0.0000000e+00 
0.0000000e+00 -5.3579425e-03 0.0000000e+00 
0.0000000e+00 -4.9783010e-03 0.0000000e+00 
0.0000000e+00 -4.5979777e-03 0.0000000e+00 
0.0000000e+00 -4.2170249e-03 0.0000000e+00 
0.0000000e+00 -3.8354951e-03 0.0000000e+00 
0.0000000e+00 -3.4534407e-03 0.0000000e+00 
0.0000000e+00 -3.0709140e-03 0.0000000e+00 
0.0000000e+00 -2.6879678e-03 0.0000000e+00 
0.0000000e+00 -2.3046543e-03 0.0000000e+00 
0.0000000e+00 -1.9210262e-03 0.0000000e+00 
0.0000000e+00 -1.5371357e-03 0.0000000e+00 
0.0000000e+00 -1.1530353e-03 0.0000000e+00 
0.0000000e+00 -7.6877768e-04 0.0000000e+00 
0.0000000e+00 -3.8441506e-04 0.0000000e+00 
CELL_DATA 250
FIELD FieldData 0
