# vtk DataFile Version 4.0
vtk output
ASCII
DATASET UNSTRUCTURED_GRID
POINTS 251 float
0.0000000e+00 0.0000000e+00 0.0000000e+00 
2.5000000e+01 0.0000000e+00 0.0000000e+00 
1.0000000e-01 0.0000000e+00 0.0000000e+00 
2.0000000e-01 0.0000000e+00 0.0000000e+00 
3.0000001e-01 0.0000000e+00 0.0000000e+00 
4.0000001e-01 0.0000000e+00 0.0000000e+00 
5.0000000e-01 0.0000000e+00 0.0000000e+00 
6.0000002e-01 0.0000000e+00 0.0000000e+00 
6.9999999e-01 0.0000000e+00 0.0000000e+00 
8.0000001e-01 0.0000000e+00 0.0000000e+00 
8.9999998e-01 0.0000000e+00 0.0000000e+00 
1.0000000e+00 0.0000000e+00 0.0000000e+00 
1.1000000e+00 0.0000000e+00 0.0000000e+00 
1.2000000e+00 0.0000000e+00 0.0000000e+00 
1.3000000e+00 0.0000000e+00 0.0000000e+00 
1.4000000e+00 0.0000000e+00 0.0000000e+00 
1.5000000e+00 0.0000000e+00 0.0000000e+00 
1.6000000e+00 0.0000000e+00 0.0000000e+00 
1.7000000e+00 0.0000000e+00 0.0000000e+00 
1.8000000e+00 0.0000000e+00 0.0000000e+00 
1.9000000e+00 0.0000000e+00 0.0000000e+00 
2.0000000e+00 0.0000000e+00 0.0000000e+00 
2.0999999e+00 0.0000000e+00 0.0000000e+00 
2.2000000e+00 0.0000000e+00 0.0000000e+00 
2.3000000e+00 0.0000000e+00 0.0000000e+00 
2.4000001e+00 0.0000000e+00 0.0000000e+00 
2.5000000e+00 0.0000000e+00 0.0000000e+00 
2.5999999e+00 0.0000000e+00 0.0000000e+00 
2.7000000e+00 0.0000000e+00 0.0000000e+00 
2.8000000e+00 0.0000000e+00 0.0000000e+00 
2.9000001e+00 0.0000000e+00 0.0000000e+00 
3.0000000e+00 0.0000000e+00 0.0000000e+00 
3.0999999e+00 0.0000000e+00 0.0000000e+00 
3.2000000e+00 0.0000000e+00 0.0000000e+00 
3.3000000e+00 0.0000000e+00 0.0000000e+00 
3.4000001e+00 0.0000000e+00 0.0000000e+00 
3.5000000e+00 0.0000000e+00 0.0000000e+00 
3.5999999e+00 0.0000000e+00 0.0000000e+00 
3.7000000e+00 0.0000000e+00 0.0000000e+00 
3.8000000e+00 0.0000000e+00 0.0000000e+00 
3.9000001e+00 0.0000000e+00 0.0000000e+00 
4.0000000e+00 0.0000000e+00 0.0000000e+00 
4.0999999e+00 0.0000000e+00 0.0000000e+00 
4.1999998e+00 0.0000000e+00 0.0000000e+00 
4.3000002e+00 0.0000000e+00 0.0000000e+00 
4.4000001e+00 0.0000000e+00 0.0000000e+00 
4.5000000e+00 0.0000000e+00 0.0000000e+00 
4.5999999e+00 0.0000000e+00 0.0000000e+00 
4.6999998e+00 0.0000000e+00 0.0000000e+00 
4.8000002e+00 0.0000000e+00 0.0000000e+00 
4.9000001e+00 0.0000000e+00 0.0000000e+00 
5.0000000e+00 0.0000000e+00 0.0000000e+00 
5.0999999e+00 0.0000000e+00 0.0000000e+00 
5.1999998e+00 0.0000000e+00 0.0000000e+00 
5.3000002e+00 0.0000000e+00 0.0000000e+00 
5.4000001e+00 0.0000000e+00 0.0000000e+00 
5.5000000e+00 0.0000000e+00 0.0000000e+00 
5.5999999e+00 0.0000000e+00 0.0000000e+00 
5.6999998e+00 0.0000000e+00 0.0000000e+00 
5.8000002e+00 0.0000000e+00 0.0000000e+00 
5.9000001e+00 0.0000000e+00 0.0000000e+00 
6.0000000e+00 0.0000000e+00 0.0000000e+00 
6.0999999e+00 0.0000000e+00 0.0000000e+00 
6.1999998e+00 0.0000000e+00 0.0000000e+00 
6.3000002e+00 0.0000000e+00 0.0000000e+00 
6.4000001e+00 0.0000000e+00 0.0000000e+00 
6.5000000e+00 0.0000000e+00 0.0000000e+00 
6.5999999e+00 0.0000000e+00 0.0000000e+00 
6.6999998e+00 0.0000000e+00 0.0000000e+00 
6.8000002e+00 0.0000000e+00 0.0000000e+00 
6.9000001e+00 0.0000000e+00 0.0000000e+00 
7.0000000e+00 0.0000000e+00 0.0000000e+00 
7.0999999e+00 0.0000000e+00 0.0000000e+00 
7.1999998e+00 0.0000000e+00 0.0000000e+00 
7.3000002e+00 0.0000000e+00 0.0000000e+00 
7.4000001e+00 0.0000000e+00 0.0000000e+00 
7.5000000e+00 0.0000000e+00 0.0000000e+00 
7.5999999e+00 0.0000000e+00 0.0000000e+00 
7.6999998e+00 0.0000000e+00 0.0000000e+00 
7.8000002e+00 0.0000000e+00 0.0000000e+00 
7.9000001e+00 0.0000000e+00 0.0000000e+00 
8.0000000e+00 0.0000000e+00 0.0000000e+00 
8.1000004e+00 0.0000000e+00 0.0000000e+00 
8.1999998e+00 0.0000000e+00 0.0000000e+00 
8.3000002e+00 0.0000000e+00 0.0000000e+00 
8.3999996e+00 0.0000000e+00 0.0000000e+00 
8.5000000e+00 0.0000000e+00 0.0000000e+00 
8.6000004e+00 0.0000000e+00 0.0000000e+00 
8.6999998e+00 0.0000000e+00 0.0000000e+00 
8.8000002e+00 0.0000000e+00 0.0000000e+00 
8.8999996e+00 0.0000000e+00 0.0000000e+00 
9.0000000e+00 0.0000000e+00 0.0000000e+00 
9.1000004e+00 0.0000000e+00 0.0000000e+00 
9.1999998e+00 0.0000000e+00 0.0000000e+00 
9.3000002e+00 0.0000000e+00 0.0000000e+00 
9.3999996e+00 0.0000000e+00 0.0000000e+00 
9.5000000e+00 0.0000000e+00 0.0000000e+00 
9.6000004e+00 0.0000000e+00 0.0000000e+00 
9.6999998e+00 0.0000000e+00 0.0000000e+00 
9.8000002e+00 0.0000000e+00 0.0000000e+00 
9.8999996e+00 0.0000000e+00 0.0000000e+00 
1.0000000e+01 0.0000000e+00 0.0000000e+00 
1.0100000e+01 0.0000000e+00 0.0000000e+00 
1.0200000e+01 0.0000000e+00 0.0000000e+00 
1.0300000e+01 0.0000000e+00 0.0000000e+00 
1.0400000e+01 0.0000000e+00 0.0000000e+00 
1.0500000e+01 0.0000000e+00 0.0000000e+00 
1.0600000e+01 0.0000000e+00 0.0000000e+00 
1.0700000e+01 0.0000000e+00 0.0000000e+00 
1.0800000e+01 0.0000000e+00 0.0000000e+00 
1.0900000e+01 0.0000000e+00 0.0000000e+00 
1.1000000e+01 0.0000000e+00 0.0000000e+00 
1.1100000e+01 0.0000000e+00 0.0000000e+00 
1.1200000e+01 0.0000000e+00 0.0000000e+00 
1.1300000e+01 0.0000000e+00 0.0000000e+00 
1.1400000e+01 0.0000000e+00 0.0000000e+00 
1.1500000e+01 0.0000000e+00 0.0000000e+00 
1.1600000e+01 0.0000000e+00 0.0000000e+00 
1.1700000e+01 0.0000000e+00 0.0000000e+00 
1.1800000e+01 0.0000000e+00 0.0000000e+00 
1.1900000e+01 0.0000000e+00 0.0000000e+00 
1.2000000e+01 0.0000000e+00 0.0000000e+00 
1.2100000e+01 0.0000000e+00 0.0000000e+00 
1.2200000e+01 0.0000000e+00 0.0000000e+00 
1.2300000e+01 0.0000000e+00 0.0000000e+00 
1.2400000e+01 0.0000000e+00 0.0000000e+00 
1.2500000e+01 0.0000000e+00 0.0000000e+00 
1.2600000e+01 0.0000000e+00 0.0000000e+00 
1.2700000e+01 0.0000000e+00 0.0000000e+00 
1.2800000e+01 0.0000000e+00 0.0000000e+00 
1.2900000e+01 0.0000000e+00 0.0000000e+00 
1.3000000e+01 0.0000000e+00 0.0000000e+00 
1.3100000e+01 0.0000000e+00 0.0000000e+00 
1.3200000e+01 0.0000000e+00 0.0000000e+00 
1.3300000e+01 0.0000000e+00 0.0000000e+00 
1.3400000e+01 0.0000000e+00 0.0000000e+00 
1.3500000e+01 0.0000000e+00 0.0000000e+00 
1.3600000e+01 0.0000000e+00 0.0000000e+00 
1.3700000e+01 0.0000000e+00 0.0000000e+00 
1.3800000e+01 0.0000000e+00 0.0000000e+00 
1.3900000e+01 0.0000000e+00 0.0000000e+00 
1.4000000e+01 0.0000000e+00 0.0000000e+00 
1.4100000e+01 0.0000000e+00 0.0000000e+00 
1.4200000e+01 0.0000000e+00 0.0000000e+00 
1.4300000e+01 0.0000000e+00 0.0000000e+00 
1.4400000e+01 0.0000000e+00 0.0000000e+00 
1.4500000e+01 0.0000000e+00 0.0000000e+00 
1.4600000e+01 0.0000000e+00 0.0000000e+00 
1.4700000e+01 0.0000000e+00 0.0000000e+00 
1.4800000e+01 0.0000000e+00 0.0000000e+00 
1.4900000e+01 0.0000000e+00 0.0000000e+00 
1.5000000e+01 0.0000000e+00 0.0000000e+00 
1.5100000e+01 0.0000000e+00 0.0000000e+00 
1.5200000e+01 0.0000000e+00 0.0000000e+00 
1.5300000e+01 0.0000000e+00 0.0000000e+00 
1.5400000e+01 0.0000000e+00 0.0000000e+00 
1.5500000e+01 0.0000000e+00 0.0000000e+00 
1.5600000e+01 0.0000000e+00 0.0000000e+00 
1.5700000e+01 0.0000000e+00 0.0000000e+00 
1.5800000e+01 0.0000000e+00 0.0000000e+00 
1.5900000e+01 0.0000000e+00 0.0000000e+00 
1.6000000e+01 0.0000000e+00 0.0000000e+00 
1.6100000e+01 0.0000000e+00 0.0000000e+00 
1.6200001e+01 0.0000000e+00 0.0000000e+00 
1.6299999e+01 0.0000000e+00 0.0000000e+00 
1.6400000e+01 0.0000000e+00 0.0000000e+00 
1.6500000e+01 0.0000000e+00 0.0000000e+00 
1.6600000e+01 0.0000000e+00 0.0000000e+00 
1.6700001e+01 0.0000000e+00 0.0000000e+00 
1.6799999e+01 0.0000000e+00 0.0000000e+00 
1.6900000e+01 0.0000000e+00 0.0000000e+00 
1.7000000e+01 0.0000000e+00 0.0000000e+00 
1.7100000e+01 0.0000000e+00 0.0000000e+00 
1.7200001e+01 0.0000000e+00 0.0000000e+00 
1.7299999e+01 0.0000000e+00 0.0000000e+00 
1.7400000e+01 0.0000000e+00 0.0000000e+00 
1.7500000e+01 0.0000000e+00 0.0000000e+00 
1.7600000e+01 0.0000000e+00 0.0000000e+00 
1.7700001e+01 0.0000000e+00 0.0000000e+00 
1.7799999e+01 0.0000000e+00 0.0000000e+00 
1.7900000e+01 0.0000000e+00 0.0000000e+00 
1.8000000e+01 0.0000000e+00 0.0000000e+00 
1.8100000e+01 0.0000000e+00 0.0000000e+00 
1.8200001e+01 0.0000000e+00 0.0000000e+00 
1.8299999e+01 0.0000000e+00 0.0000000e+00 
1.8400000e+01 0.0000000e+00 0.0000000e+00 
1.8500000e+01 0.0000000e+00 0.0000000e+00 
1.8600000e+01 0.0000000e+00 0.0000000e+00 
1.8700001e+01 0.0000000e+00 0.0000000e+00 
1.8799999e+01 0.0000000e+00 0.0000000e+00 
1.8900000e+01 0.0000000e+00 0.0000000e+00 
1.9000000e+01 0.0000000e+00 0.0000000e+00 
1.9100000e+01 0.0000000e+00 0.0000000e+00 
1.9200001e+01 0.0000000e+00 0.0000000e+00 
1.9299999e+01 0.0000000e+00 0.0000000e+00 
1.9400000e+01 0.0000000e+00 0.0000000e+00 
1.9500000e+01 0.0000000e+00 0.0000000e+00 
1.9600000e+01 0.0000000e+00 0.0000000e+00 
1.9700001e+01 0.0000000e+00 0.0000000e+00 
1.9799999e+01 0.0000000e+00 0.0000000e+00 
1.9900000e+01 0.0000000e+00 0.0000000e+00 
2.0000000e+01 0.0000000e+00 0.0000000e+00 
2.0100000e+01 0.0000000e+00 0.0000000e+00 
2.0200001e+01 0.0000000e+00 0.0000000e+00 
2.0299999e+01 0.0000000e+00 0.0000000e+00 
2.0400000e+01 0.0000000e+00 0.0000000e+00 
2.0500000e+01 0.0000000e+00 0.0000000e+00 
2.0600000e+01 0.0000000e+00 0.0000000e+00 
2.0700001e+01 0.0000000e+00 0.0000000e+00 
2.0799999e+01 0.0000000e+00 0.0000000e+00 
2.0900000e+01 0.0000000e+00 0.0000000e+00 
2.1000000e+01 0.0000000e+00 0.0000000e+00 
2.1100000e+01 0.0000000e+00 0.0000000e+00 
2.1200001e+01 0.0000000e+00 0.0000000e+00 
2.1299999e+01 0.0000000e+00 0.0000000e+00 
2.1400000e+01 0.0000000e+00 0.0000000e+00 
2.1500000e+01 0.0000000e+00 0.0000000e+00 
2.1600000e+01 0.0000000e+00 0.0000000e+00 
2.1700001e+01 0.0000000e+00 0.0000000e+00 
2.1799999e+01 0.0000000e+00 0.0000000e+00 
2.1900000e+01 0.0000000e+00 0.0000000e+00 
2.2000000e+01 0.0000000e+00 0.0000000e+00 
2.2100000e+01 0.0000000e+00 0.0000000e+00 
2.2200001e+01 0.0000000e+00 0.0000000e+00 
2.2299999e+01 0.0000000e+00 0.0000000e+00 
2.2400000e+01 0.0000000e+00 0.0000000e+00 
2.2500000e+01 0.0000000e+00 0.0000000e+00 
2.2600000e+01 0.0000000e+00 0.0000000e+00 
2.2700001e+01 0.0000000e+00 0.0000000e+00 
2.2799999e+01 0.0000000e+00 0.0000000e+00 
2.2900000e+01 0.0000000e+00 0.0000000e+00 
2.3000000e+01 0.0000000e+00 0.0000000e+00 
2.3100000e+01 0.0000000e+00 0.0000000e+00 
2.3200001e+01 0.0000000e+00 0.0000000e+00 
2.3299999e+01 0.0000000e+00 0.0000000e+00 
2.3400000e+01 0.0000000e+00 0.0000000e+00 
2.3500000e+01 0.0000000e+00 0.0000000e+00 
2.3600000e+01 0.0000000e+00 0.0000000e+00 
2.3700001e+01 0.0000000e+00 0.0000000e+00 
2.3799999e+01 0.0000000e+00 0.0000000e+00 
2.3900000e+01 0.0000000e+00 0.0000000e+00 
2.4000000e+01 0.0000000e+00 0.0000000e+00 
2.4100000e+01 0.0000000e+00 0.0000000e+00 
2.4200001e+01 0.0000000e+00 0.0000000e+00 
2.4299999e+01 0.0000000e+00 0.0000000e+00 
2.4400000e+01 0.0000000e+00 0.0000000e+00 
2.4500000e+01 0.0000000e+00 0.0000000e+00 
2.4600000e+01 0.0000000e+00 0.0000000e+00 
2.4700001e+01 0.0000000e+00 0.0000000e+00 
2.4799999e+01 0.0000000e+00 0.0000000e+00 
2.4900000e+01 0.0000000e+00 0.0000000e+00 

CELLS 250 750
2 0 2
2 2 3
2 3 4
2 4 5
2 5 6
2 6 7
2 7 8
2 8 9
2 9 10
2 10 11
2 11 12
2 12 13
2 13 14
2 14 15
2 15 16
2 16 17
2 17 18
2 18 19
2 19 20
2 20 21
2 21 22
2 22 23
2 23 24
2 24 25
2 25 26
2 26 27
2 27 28
2 28 29
2 29 30
2 30 31
2 31 32
2 32 33
2 33 34
2 34 35
2 35 36
2 36 37
2 37 38
2 38 39
2 39 40
2 40 41
2 41 42
2 42 43
2 43 44
2 44 45
2 45 46
2 46 47
2 47 48
2 48 49
2 49 50
2 50 51
2 51 52
2 52 53
2 53 54
2 54 55
2 55 56
2 56 57
2 57 58
2 58 59
2 59 60
2 60 61
2 61 62
2 62 63
2 63 64
2 64 65
2 65 66
2 66 67
2 67 68
2 68 69
2 69 70
2 70 71
2 71 72
2 72 73
2 73 74
2 74 75
2 75 76
2 76 77
2 77 78
2 78 79
2 79 80
2 80 81
2 81 82
2 82 83
2 83 84
2 84 85
2 85 86
2 86 87
2 87 88
2 88 89
2 89 90
2 90 91
2 91 92
2 92 93
2 93 94
2 94 95
2 95 96
2 96 97
2 97 98
2 98 99
2 99 100
2 100 101
2 101 102
2 102 103
2 103 104
2 104 105
2 105 106
2 106 107
2 107 108
2 108 109
2 109 110
2 110 111
2 111 112
2 112 113
2 113 114
2 114 115
2 115 116
2 116 117
2 117 118
2 118 119
2 119 120
2 120 121
2 121 122
2 122 123
2 123 124
2 124 125
2 125 126
2 126 127
2 127 128
2 128 129
2 129 130
2 130 131
2 131 132
2 132 133
2 133 134
2 134 135
2 135 136
2 136 137
2 137 138
2 138 139
2 139 140
2 140 141
2 141 142
2 142 143
2 143 144
2 144 145
2 145 146
2 146 147
2 147 148
2 148 149
2 149 150
2 150 151
2 151 152
2 152 153
2 153 154
2 154 155
2 155 156
2 156 157
2 157 158
2 158 159
2 159 160
2 160 161
2 161 162
2 162 163
2 163 164
2 164 165
2 165 166
2 166 167
2 167 168
2 168 169
2 169 170
2 170 171
2 171 172
2 172 173
2 173 174
2 174 175
2 175 176
2 176 177
2 177 178
2 178 179
2 179 180
2 180 181
2 181 182
2 182 183
2 183 184
2 184 185
2 185 186
2 186 187
2 187 188
2 188 189
2 189 190
2 190 191
2 191 192
2 192 193
2 193 194
2 194 195
2 195 196
2 196 197
2 197 198
2 198 199
2 199 200
2 200 201
2 201 202
2 202 203
2 203 204
2 204 205
2 205 206
2 206 207
2 207 208
2 208 209
2 209 210
2 210 211
2 211 212
2 212 213
2 213 214
2 214 215
2 215 216
2 216 217
2 217 218
2 218 219
2 219 220
2 220 221
2 221 222
2 222 223
2 223 224
2 224 225
2 225 226
2 226 227
2 227 228
2 228 229
2 229 230
2 230 231
2 231 232
2 232 233
2 233 234
2 234 235
2 235 236
2 236 237
2 237 238
2 238 239
2 239 240
2 240 241
2 241 242
2 242 243
2 243 244
2 244 245
2 245 246
2 246 247
2 247 248
2 248 249
2 249 250
2 250 1

CELL_TYPES 250
3
3
3
3
3
3
3
3
3
3
3
3
3
3
3
3
3
3
3
3
3
3
3
3
3
3
3
3
3
3
3
3
3
3
3
3
3
3
3
3
3
3
3
3
3
3
3
3
3
3
3
3
3
3
3
3
3
3
3
3
3
3
3
3
3
3
3
3
3
3
3
3
3
3
3
3
3
3
3
3
3
3
3
3
3
3
3
3
3
3
3
3
3
3
3
3
3
3
3
3
3
3
3
3
3
3
3
3
3
3
3
3
3
3
3
3
3
3
3
3
3
3
3
3
3
3
3
3
3
3
3
3
3
3
3
3
3
3
3
3
3
3
3
3
3
3
3
3
3
3
3
3
3
3
3
3
3
3
3
3
3
3
3
3
3
3
3
3
3
3
3
3
3
3
3
3
3
3
3
3
3
3
3
3
3
3
3
3
3
3
3
3
3
3
3
3
3
3
3
3
3
3
3
3
3
3
3
3
3
3
3
3
3
3
3
3
3
3
3
3
3
3
3
3
3
3
3
3
3
3
3
3
3
3
3
3
3
3
3
3
3
3
3
3
3
3
3
3
3
3
POINT_DATA 251
FIELD FieldData 1
DISPLACEMENT 3 251  float
0.0000000e+00 0.0000000e+00 0.0000000e+00 
0.0000000e+00 0.0000000e+00 0.0000000e+00 
0.0000000e+00 -2.2027754e-04 0.0000000e+00 
0.0000000e+00 -4.4053289e-04 0.0000000e+00 
0.0000000e+00 -6.6074391e-04 0.0000000e+00 
0.0000000e+00 -8.8088843e-04 0.0000000e+00 
0.0000000e+00 -1.1009442e-03 0.0000000e+00 
0.0000000e+00 -1.3208891e-03 0.0000000e+00 
0.0000000e+00 -1.5407010e-03 0.0000000e+00 
0.0000000e+00 -1.7603578e-03 0.0000000e+00 
0.0000000e+00 -1.9798370e-03 0.0000000e+00 
0.0000000e+00 -2.1991166e-03 0.0000000e+00 
0.0000000e+00 -2.4181746e-03 0.0000000e+00 
0.0000000e+00 -2.6369886e-03 0.0000000e+00 
0.0000000e+00 -2.8555368e-03 0.0000000e+00 
0.0000000e+00 -3.0737964e-03 0.0000000e+00 
0.0000000e+00 -3.2917457e-03 0.0000000e+00 
0.0000000e+00 -3.5093622e-03 0.0000000e+00 
0.0000000e+00 -3.7266242e-03 0.0000000e+00 
0.0000000e+00 -3.9435090e-03 0.0000000e+00 
0.0000000e+00 -4.1599944e-03 0.0000000e+00 
0.0000000e+00 -4.3760589e-03 0.0000000e+00 
0.0000000e+00 -4.5916797e-03 0.0000000e+00 
0.0000000e+00 -4.8068347e-03 0.0000000e+00 
0.0000000e+00 -5.0215018e-03 0.0000000e+00 
0.0000000e+00 -5.2356590e-03 0.0000000e+00 
0.0000000e+00 -5.4492839e-03 0.0000000e+00 
0.0000000e+00 -5.6623542e-03 0.0000000e+00 
0.0000000e+00 -5.8748480e-03 0.0000000e+00 
0.0000000e+00 -6.0867430e-03 0.0000000e+00 
0.0000000e+00 -6.2980168e-03 0.0000000e+00 
0.0000000e+00 -6.5086475e-03 0.0000000e+00 
0.0000000e+00 -6.7186127e-03 0.0000000e+00 
0.0000000e+00 -6.9278902e-03 0.0000000e+00 
0.0000000e+00 -7.1364581e-03 0.0000000e+00 
0.0000000e+00 -7.3442939e-03 0.0000000e+00 
0.0000000e+00 -7.5513753e-03 0.0000000e+00 
0.0000000e+00 -7.7576805e-03 0.0000000e+00 
0.0000000e+00 -7.9631871e-03 0.0000000e+00 
0.0000000e+00 -8.1678731e-03 0.0000000e+00 
0.0000000e+00 -8.3717164e-03 0.0000000e+00 
0.0000000e+00 -8.5746935e-03 0.0000000e+00 
0.0000000e+00 -8.7767839e-03 0.0000000e+00 
0.0000000e+00 -8.9779645e-03 0.0000000e+00 
0.0000000e+00 -9.1782128e-03 0.0000000e+00 
0.0000000e+00 -9.3775075e-03 0.0000000e+00 
0.0000000e+00 -9.5758261e-03 0.0000000e+00 
0.0000000e+00 -9.7731454e-03 0.0000000e+00 
0.0000000e+00 -9.9694449e-03 0.0000000e+00 
0.0000000e+00 -1.0164700e-02 0.0000000e+00 
0.0000000e+00 -1.0358891e-02 0.0000000e+00 
0.0000000e+00 -1.0551996e-02 0.0000000e+00 
0.0000000e+00 -1.0743990e-02 0.0000000e+00 
0.0000000e+00 -1.0934851e-02 0.0000000e+00 
0.0000000e+00 -1.1124560e-02 0.0000000e+00 
0.0000000e+00 -1.1313091e-02 0.0000000e+00 
0.0000000e+00 -1.1500424e-02 0.0000000e+00 
0.0000000e+00 -1.1686536e-02 0.0000000e+00 
0.0000000e+00 -1.1871406e-02 0.0000000e+00 
0.0000000e+00 -1.2055010e-02 0.0000000e+00 
0.0000000e+00 -1.2237325e-02 0.0000000e+00 
0.0000000e+00 -1.2418333e-02 0.0000000e+00 
0.0000000e+00 -1.2598007e-02 0.0000000e+00 
0.0000000e+00 -1.2776327e-02 0.0000000e+00 
0.0000000e+00 -1.2953270e-02 0.0000000e+00 
0.0000000e+00 -1.3128815e-02 0.0000000e+00 
0.0000000e+00 -1.3302939e-02 0.0000000e+00 
0.0000000e+00 -1.3475619e-02 0.0000000e+00 
0.0000000e+00 -1.3646834e-02 0.0000000e+00 
0.0000000e+00 -1.3816561e-02 0.0000000e+00 
0.0000000e+00 -1.3984777e-02 0.0000000e+00 
0.0000000e+00 -1.4151460e-02 0.0000000e+00 
0.0000000e+00 -1.4316590e-02 0.0000000e+00 
0.0000000e+00 -1.4480142e-02 0.0000000e+00 
0.0000000e+00 -1.4642094e-02 0.0000000e+00 
0.0000000e+00 -1.4802425e-02 0.0000000e+00 
0.0000000e+00 -1.4961112e-02 0.0000000e+00 
0.0000000e+00 -1.5118133e-02 0.0000000e+00 
0.0000000e+00 -1.5273466e-02 0.0000000e+00 
0.0000000e+00 -1.5427087e-02 0.0000000e+00 
0.0000000e+00 -1.5578976e-02 0.0000000e+00 
0.0000000e+00 -1.5729109e-02 0.0000000e+00 
0.0000000e+00 -1.5877463e-02 0.0000000e+00 
0.0000000e+00 -1.6024018e-02 0.0000000e+00 
0.0000000e+00 -1.6168751e-02 0.0000000e+00 
0.0000000e+00 -1.6311638e-02 0.0000000e+00 
0.0000000e+00 -1.6452657e-02 0.0000000e+00 
0.0000000e+00 -1.6591789e-02 0.0000000e+00 
0.0000000e+00 -1.6729008e-02 0.0000000e+00 
0.0000000e+00 -1.6864292e-02 0.0000000e+00 
0.0000000e+00 -1.6997620e-02 0.0000000e+00 
0.0000000e+00 -1.7128970e-02 0.0000000e+00 
0.0000000e+00 -1.7258318e-02 0.0000000e+00 
0.0000000e+00 -1.7385643e-02 0.0000000e+00 
0.0000000e+00 -1.7510921e-02 0.0000000e+00 
0.0000000e+00 -1.7634131e-02 0.0000000e+00 
0.0000000e+00 -1.7755251e-02 0.0000000e+00 
0.0000000e+00 -1.7874258e-02 0.0000000e+00 
0.0000000e+00 -1.7991127e-02 0.0000000e+00 
0.0000000e+00 -1.8105840e-02 0.0000000e+00 
0.0000000e+00 -1.8218374e-02 0.0000000e+00 
0.0000000e+00 -1.8328702e-02 0.0000000e+00 
0.0000000e+00 -1.8436808e-02 0.0000000e+00 
0.0000000e+00 -1.8542664e-02 0.0000000e+00 
0.0000000e+00 -1.8646251e-02 0.0000000e+00 
0.0000000e+00 -1.8747548e-02 0.0000000e+00 
0.0000000e+00 -1.8846527e-02 0.0000000e+00 
0.0000000e+00 -1.8943170e-02 0.0000000e+00 
0.0000000e+00 -1.9037453e-02 0.0000000e+00 
0.0000000e+00 -1.9129355e-02 0.0000000e+00 
0.0000000e+00 -1.9218851e-02 0.0000000e+00 
0.0000000e+00 -1.9305920e-02 0.0000000e+00 
0.0000000e+00 -1.9390540e-02 0.0000000e+00 
0.0000000e+00 -1.9472688e-02 0.0000000e+00 
0.0000000e+00 -1.9552343e-02 0.0000000e+00 
0.0000000e+00 -1.9629478e-02 0.0000000e+00 
0.0000000e+00 -1.9704076e-02 0.0000000e+00 
0.0000000e+00 -1.9776111e-02 0.0000000e+00 
0.0000000e+00 -1.9845564e-02 0.0000000e+00 
0.0000000e+00 -1.9912409e-02 0.0000000e+00 
0.0000000e+00 -1.9976623e-02 0.0000000e+00 
0.0000000e+00 -2.0038186e-02 0.0000000e+00 
0.0000000e+00 -2.0097069e-02 0.0000000e+00 
0.0000000e+00 -2.0153241e-02 0.0000000e+00 
0.0000000e+00 -2.0206669e-02 0.0000000e+00 
0.0000000e+00 -2.0257330e-02 0.0000000e+00 
0.0000000e+00 -2.0305198e-02 0.0000000e+00 
0.0000000e+00 -2.0350251e-02 0.0000000e+00 
0.0000000e+00 -2.0392470e-02 0.0000000e+00 
0.0000000e+00 -2.0431830e-02 0.0000000e+00 
0.0000000e+00 -2.0468310e-02 0.0000000e+00 
0.0000000e+00 -2.0501884e-02 0.0000000e+00 
0.0000000e+00 -2.0532532e-02 0.0000000e+00 
0.0000000e+00 -2.0560229e-02 0.0000000e+00 
0.0000000e+00 -2.0584958e-02 0.0000000e+00 
0.0000000e+00 -2.0606689e-02 0.0000000e+00 
0.0000000e+00 -2.0625407e-02 0.0000000e+00 
0.0000000e+00 -2.0641083e-02 0.0000000e+00 
0.0000000e+00 -2.0653697e-02 0.0000000e+00 
0.0000000e+00 -2.0663228e-02 0.0000000e+00 
0.0000000e+00 -2.0669650e-02 0.0000000e+00 
0.0000000e+00 -2.0672943e-02 0.0000000e+00 
0.0000000e+00 -2.0673085e-02 0.0000000e+00 
0.0000000e+00 -2.0670051e-02 0.0000000e+00 
0.0000000e+00 -2.0663818e-02 0.0000000e+00 
0.0000000e+00 -2.0654365e-02 0.0000000e+00 
0.0000000e+00 -2.0641671e-02 0.0000000e+00 
0.0000000e+00 -2.0625710e-02 0.0000000e+00 
0.0000000e+00 -2.0606462e-02 0.0000000e+00 
0.0000000e+00 -2.0583903e-02 0.0000000e+00 
0.0000000e+00 -2.0558011e-02 0.0000000e+00 
0.0000000e+00 -2.0528762e-02 0.0000000e+00 
0.0000000e+00 -2.0496134e-02 0.0000000e+00 
0.0000000e+00 -2.0460106e-02 0.0000000e+00 
0.0000000e+00 -2.0420654e-02 0.0000000e+00 
0.0000000e+00 -2.0377755e-02 0.0000000e+00 
0.0000000e+00 -2.0331386e-02 0.0000000e+00 
0.0000000e+00 -2.0281527e-02 0.0000000e+00 
0.0000000e+00 -2.0228153e-02 0.0000000e+00 
0.0000000e+00 -2.0171242e-02 0.0000000e+00 
0.0000000e+00 -2.0110771e-02 0.0000000e+00 
0.0000000e+00 -2.0046718e-02 0.0000000e+00 
0.0000000e+00 -1.9979060e-02 0.0000000e+00 
0.0000000e+00 -1.9907774e-02 0.0000000e+00 
0.0000000e+00 -1.9832838e-02 0.0000000e+00 
0.0000000e+00 -1.9754229e-02 0.0000000e+00 
0.0000000e+00 -1.9671926e-02 0.0000000e+00 
0.0000000e+00 -1.9585904e-02 0.0000000e+00 
0.0000000e+00 -1.9496141e-02 0.0000000e+00 
0.0000000e+00 -1.9402614e-02 0.0000000e+00 
0.0000000e+00 -1.9305300e-02 0.0000000e+00 
0.0000000e+00 -1.9204179e-02 0.0000000e+00 
0.0000000e+00 -1.9099228e-02 0.0000000e+00 
0.0000000e+00 -1.8990422e-02 0.0000000e+00 
0.0000000e+00 -1.8877737e-02 0.0000000e+00 
0.0000000e+00 -1.8761152e-02 0.0000000e+00 
0.0000000e+00 -1.8640649e-02 0.0000000e+00 
0.0000000e+00 -1.8516202e-02 0.0000000e+00 
0.0000000e+00 -1.8387787e-02 0.0000000e+00 
0.0000000e+00 -1.8255381e-02 0.0000000e+00 
0.0000000e+00 -1.8118961e-02 0.0000000e+00 
0.0000000e+00 -1.7978504e-02 0.0000000e+00 
0.0000000e+00 -1.7833995e-02 0.0000000e+00 
0.0000000e+00 -1.7685408e-02 0.0000000e+00 
0.0000000e+00 -1.7532717e-02 0.0000000e+00 
0.0000000e+00 -1.7375896e-02 0.0000000e+00 
0.0000000e+00 -1.7214922e-02 0.0000000e+00 
0.0000000e+00 -1.7049782e-02 0.0000000e+00 
0.0000000e+00 -1.6880456e-02 0.0000000e+00 
0.0000000e+00 -1.6706919e-02 0.0000000e+00 
0.0000000e+00 -1.6529134e-02 0.0000000e+00 
0.0000000e+00 -1.6347075e-02 0.0000000e+00 
0.0000000e+00 -1.6160734e-02 0.0000000e+00 
0.0000000e+00 -1.5970102e-02 0.0000000e+00 
0.0000000e+00 -1.5775204e-02 0.0000000e+00 
0.0000000e+00 -1.5576109e-02 0.0000000e+00 
0.0000000e+00 -1.5372892e-02 0.0000000e+00 
0.0000000e+00 -1.5165625e-02 0.0000000e+00 
0.0000000e+00 -1.4954383e-02 0.0000000e+00 
0.0000000e+00 -1.4739238e-02 0.0000000e+00 
0.0000000e+00 -1.4520264e-02 0.0000000e+00 
0.0000000e+00 -1.4297536e-02 0.0000000e+00 
0.0000000e+00 -1.4071126e-02 0.0000000e+00 
0.0000000e+00 -1.3841107e-02 0.0000000e+00 
0.0000000e+00 -1.3607554e-02 0.0000000e+00 
0.0000000e+00 -1.3370541e-02 0.0000000e+00 
0.0000000e+00 -1.3130140e-02 0.0000000e+00 
0.0000000e+00 -1.2886425e-02 0.0000000e+00 
0.0000000e+00 -1.2639471e-02 0.0000000e+00 
0.0000000e+00 -1.2389351e-02 0.0000000e+00 
0.0000000e+00 -1.2136137e-02 0.0000000e+00 
0.0000000e+00 -1.1879903e-02 0.0000000e+00 
0.0000000e+00 -1.1620725e-02 0.0000000e+00 
0.0000000e+00 -1.1358675e-02 0.0000000e+00 
0.0000000e+00 -1.1093825e-02 0.0000000e+00 
0.0000000e+00 -1.0826251e-02 0.0000000e+00 
0.0000000e+00 -1.0556025e-02 0.0000000e+00 
0.0000000e+00 -1.0283222e-02 0.0000000e+00 
0.0000000e+00 -1.0007916e-02 0.0000000e+00 
0.0000000e+00 -9.7301789e-03 0.0000000e+00 
0.0000000e+00 -9.4500845e-03 0.0000000e+00 
0.0000000e+00 -9.1677075e-03 0.0000000e+00 
0.0000000e+00 -8.8831214e-03 0.0000000e+00 
0.0000000e+00 -8.5963989e-03 0.0000000e+00 
0.0000000e+00 -8.3076134e-03 0.0000000e+00 
0.0000000e+00 -8.0168406e-03 0.0000000e+00 
0.0000000e+00 -7.7241524e-03 0.0000000e+00 
0.0000000e+00 -7.4296226e-03 0.0000000e+00 
0.0000000e+00 -7.1333256e-03 0.0000000e+00 
0.0000000e+00 -6.8353345e-03 0.0000000e+00 
0.0000000e+00 -6.5357224e-03 0.0000000e+00 
0.0000000e+00 -6.2345644e-03 0.0000000e+00 
0.0000000e+00 -5.9319325e-03 0.0000000e+00 
0.0000000e+00 -5.6279018e-03 0.0000000e+00 
0.0000000e+00 -5.3225448e-03 0.0000000e+00 
0.0000000e+00 -5.0159357e-03 0.0000000e+00 
0.0000000e+00 -4.7081485e-03 0.0000000e+00 
0.0000000e+00 -4.3992558e-03 0.0000000e+00 
0.0000000e+00 -4.0893327e-03 0.0000000e+00 
0.0000000e+00 -3.7784514e-03 0.0000000e+00 
0.0000000e+00 -3.4666865e-03 0.0000000e+00 
0.0000000e+00 -3.1541111e-03 0.0000000e+00 
0.0000000e+00 -2.8407993e-03 0.0000000e+00 
0.0000000e+00 -2.5268246e-03 0.0000000e+00 
0.0000000e+00 -2.2122606e-03 0.0000000e+00 
0.0000000e+00 -1.8971809e-03 0.0000000e+00 
0.0000000e+00 -1.5816593e-03 0.0000000e+00 
0.0000000e+00 -1.2657694e-03 0.0000000e+00 
0.0000000e+00 -9.4958488e-04 0.0000000e+00 
0.0000000e+00 -6.3317933e-04 0.0000000e+00 
0.0000000e+00 -3.1662651e-04 0.0000000e+00 
CELL_DATA 250
FIELD FieldData 0
