# vtk DataFile Version 4.0
vtk output
ASCII
DATASET UNSTRUCTURED_GRID
POINTS 251 float
0.0000000e+00 0.0000000e+00 0.0000000e+00 
2.5000000e+01 0.0000000e+00 0.0000000e+00 
1.0000000e-01 0.0000000e+00 0.0000000e+00 
2.0000000e-01 0.0000000e+00 0.0000000e+00 
3.0000001e-01 0.0000000e+00 0.0000000e+00 
4.0000001e-01 0.0000000e+00 0.0000000e+00 
5.0000000e-01 0.0000000e+00 0.0000000e+00 
6.0000002e-01 0.0000000e+00 0.0000000e+00 
6.9999999e-01 0.0000000e+00 0.0000000e+00 
8.0000001e-01 0.0000000e+00 0.0000000e+00 
8.9999998e-01 0.0000000e+00 0.0000000e+00 
1.0000000e+00 0.0000000e+00 0.0000000e+00 
1.1000000e+00 0.0000000e+00 0.0000000e+00 
1.2000000e+00 0.0000000e+00 0.0000000e+00 
1.3000000e+00 0.0000000e+00 0.0000000e+00 
1.4000000e+00 0.0000000e+00 0.0000000e+00 
1.5000000e+00 0.0000000e+00 0.0000000e+00 
1.6000000e+00 0.0000000e+00 0.0000000e+00 
1.7000000e+00 0.0000000e+00 0.0000000e+00 
1.8000000e+00 0.0000000e+00 0.0000000e+00 
1.9000000e+00 0.0000000e+00 0.0000000e+00 
2.0000000e+00 0.0000000e+00 0.0000000e+00 
2.0999999e+00 0.0000000e+00 0.0000000e+00 
2.2000000e+00 0.0000000e+00 0.0000000e+00 
2.3000000e+00 0.0000000e+00 0.0000000e+00 
2.4000001e+00 0.0000000e+00 0.0000000e+00 
2.5000000e+00 0.0000000e+00 0.0000000e+00 
2.5999999e+00 0.0000000e+00 0.0000000e+00 
2.7000000e+00 0.0000000e+00 0.0000000e+00 
2.8000000e+00 0.0000000e+00 0.0000000e+00 
2.9000001e+00 0.0000000e+00 0.0000000e+00 
3.0000000e+00 0.0000000e+00 0.0000000e+00 
3.0999999e+00 0.0000000e+00 0.0000000e+00 
3.2000000e+00 0.0000000e+00 0.0000000e+00 
3.3000000e+00 0.0000000e+00 0.0000000e+00 
3.4000001e+00 0.0000000e+00 0.0000000e+00 
3.5000000e+00 0.0000000e+00 0.0000000e+00 
3.5999999e+00 0.0000000e+00 0.0000000e+00 
3.7000000e+00 0.0000000e+00 0.0000000e+00 
3.8000000e+00 0.0000000e+00 0.0000000e+00 
3.9000001e+00 0.0000000e+00 0.0000000e+00 
4.0000000e+00 0.0000000e+00 0.0000000e+00 
4.0999999e+00 0.0000000e+00 0.0000000e+00 
4.1999998e+00 0.0000000e+00 0.0000000e+00 
4.3000002e+00 0.0000000e+00 0.0000000e+00 
4.4000001e+00 0.0000000e+00 0.0000000e+00 
4.5000000e+00 0.0000000e+00 0.0000000e+00 
4.5999999e+00 0.0000000e+00 0.0000000e+00 
4.6999998e+00 0.0000000e+00 0.0000000e+00 
4.8000002e+00 0.0000000e+00 0.0000000e+00 
4.9000001e+00 0.0000000e+00 0.0000000e+00 
5.0000000e+00 0.0000000e+00 0.0000000e+00 
5.0999999e+00 0.0000000e+00 0.0000000e+00 
5.1999998e+00 0.0000000e+00 0.0000000e+00 
5.3000002e+00 0.0000000e+00 0.0000000e+00 
5.4000001e+00 0.0000000e+00 0.0000000e+00 
5.5000000e+00 0.0000000e+00 0.0000000e+00 
5.5999999e+00 0.0000000e+00 0.0000000e+00 
5.6999998e+00 0.0000000e+00 0.0000000e+00 
5.8000002e+00 0.0000000e+00 0.0000000e+00 
5.9000001e+00 0.0000000e+00 0.0000000e+00 
6.0000000e+00 0.0000000e+00 0.0000000e+00 
6.0999999e+00 0.0000000e+00 0.0000000e+00 
6.1999998e+00 0.0000000e+00 0.0000000e+00 
6.3000002e+00 0.0000000e+00 0.0000000e+00 
6.4000001e+00 0.0000000e+00 0.0000000e+00 
6.5000000e+00 0.0000000e+00 0.0000000e+00 
6.5999999e+00 0.0000000e+00 0.0000000e+00 
6.6999998e+00 0.0000000e+00 0.0000000e+00 
6.8000002e+00 0.0000000e+00 0.0000000e+00 
6.9000001e+00 0.0000000e+00 0.0000000e+00 
7.0000000e+00 0.0000000e+00 0.0000000e+00 
7.0999999e+00 0.0000000e+00 0.0000000e+00 
7.1999998e+00 0.0000000e+00 0.0000000e+00 
7.3000002e+00 0.0000000e+00 0.0000000e+00 
7.4000001e+00 0.0000000e+00 0.0000000e+00 
7.5000000e+00 0.0000000e+00 0.0000000e+00 
7.5999999e+00 0.0000000e+00 0.0000000e+00 
7.6999998e+00 0.0000000e+00 0.0000000e+00 
7.8000002e+00 0.0000000e+00 0.0000000e+00 
7.9000001e+00 0.0000000e+00 0.0000000e+00 
8.0000000e+00 0.0000000e+00 0.0000000e+00 
8.1000004e+00 0.0000000e+00 0.0000000e+00 
8.1999998e+00 0.0000000e+00 0.0000000e+00 
8.3000002e+00 0.0000000e+00 0.0000000e+00 
8.3999996e+00 0.0000000e+00 0.0000000e+00 
8.5000000e+00 0.0000000e+00 0.0000000e+00 
8.6000004e+00 0.0000000e+00 0.0000000e+00 
8.6999998e+00 0.0000000e+00 0.0000000e+00 
8.8000002e+00 0.0000000e+00 0.0000000e+00 
8.8999996e+00 0.0000000e+00 0.0000000e+00 
9.0000000e+00 0.0000000e+00 0.0000000e+00 
9.1000004e+00 0.0000000e+00 0.0000000e+00 
9.1999998e+00 0.0000000e+00 0.0000000e+00 
9.3000002e+00 0.0000000e+00 0.0000000e+00 
9.3999996e+00 0.0000000e+00 0.0000000e+00 
9.5000000e+00 0.0000000e+00 0.0000000e+00 
9.6000004e+00 0.0000000e+00 0.0000000e+00 
9.6999998e+00 0.0000000e+00 0.0000000e+00 
9.8000002e+00 0.0000000e+00 0.0000000e+00 
9.8999996e+00 0.0000000e+00 0.0000000e+00 
1.0000000e+01 0.0000000e+00 0.0000000e+00 
1.0100000e+01 0.0000000e+00 0.0000000e+00 
1.0200000e+01 0.0000000e+00 0.0000000e+00 
1.0300000e+01 0.0000000e+00 0.0000000e+00 
1.0400000e+01 0.0000000e+00 0.0000000e+00 
1.0500000e+01 0.0000000e+00 0.0000000e+00 
1.0600000e+01 0.0000000e+00 0.0000000e+00 
1.0700000e+01 0.0000000e+00 0.0000000e+00 
1.0800000e+01 0.0000000e+00 0.0000000e+00 
1.0900000e+01 0.0000000e+00 0.0000000e+00 
1.1000000e+01 0.0000000e+00 0.0000000e+00 
1.1100000e+01 0.0000000e+00 0.0000000e+00 
1.1200000e+01 0.0000000e+00 0.0000000e+00 
1.1300000e+01 0.0000000e+00 0.0000000e+00 
1.1400000e+01 0.0000000e+00 0.0000000e+00 
1.1500000e+01 0.0000000e+00 0.0000000e+00 
1.1600000e+01 0.0000000e+00 0.0000000e+00 
1.1700000e+01 0.0000000e+00 0.0000000e+00 
1.1800000e+01 0.0000000e+00 0.0000000e+00 
1.1900000e+01 0.0000000e+00 0.0000000e+00 
1.2000000e+01 0.0000000e+00 0.0000000e+00 
1.2100000e+01 0.0000000e+00 0.0000000e+00 
1.2200000e+01 0.0000000e+00 0.0000000e+00 
1.2300000e+01 0.0000000e+00 0.0000000e+00 
1.2400000e+01 0.0000000e+00 0.0000000e+00 
1.2500000e+01 0.0000000e+00 0.0000000e+00 
1.2600000e+01 0.0000000e+00 0.0000000e+00 
1.2700000e+01 0.0000000e+00 0.0000000e+00 
1.2800000e+01 0.0000000e+00 0.0000000e+00 
1.2900000e+01 0.0000000e+00 0.0000000e+00 
1.3000000e+01 0.0000000e+00 0.0000000e+00 
1.3100000e+01 0.0000000e+00 0.0000000e+00 
1.3200000e+01 0.0000000e+00 0.0000000e+00 
1.3300000e+01 0.0000000e+00 0.0000000e+00 
1.3400000e+01 0.0000000e+00 0.0000000e+00 
1.3500000e+01 0.0000000e+00 0.0000000e+00 
1.3600000e+01 0.0000000e+00 0.0000000e+00 
1.3700000e+01 0.0000000e+00 0.0000000e+00 
1.3800000e+01 0.0000000e+00 0.0000000e+00 
1.3900000e+01 0.0000000e+00 0.0000000e+00 
1.4000000e+01 0.0000000e+00 0.0000000e+00 
1.4100000e+01 0.0000000e+00 0.0000000e+00 
1.4200000e+01 0.0000000e+00 0.0000000e+00 
1.4300000e+01 0.0000000e+00 0.0000000e+00 
1.4400000e+01 0.0000000e+00 0.0000000e+00 
1.4500000e+01 0.0000000e+00 0.0000000e+00 
1.4600000e+01 0.0000000e+00 0.0000000e+00 
1.4700000e+01 0.0000000e+00 0.0000000e+00 
1.4800000e+01 0.0000000e+00 0.0000000e+00 
1.4900000e+01 0.0000000e+00 0.0000000e+00 
1.5000000e+01 0.0000000e+00 0.0000000e+00 
1.5100000e+01 0.0000000e+00 0.0000000e+00 
1.5200000e+01 0.0000000e+00 0.0000000e+00 
1.5300000e+01 0.0000000e+00 0.0000000e+00 
1.5400000e+01 0.0000000e+00 0.0000000e+00 
1.5500000e+01 0.0000000e+00 0.0000000e+00 
1.5600000e+01 0.0000000e+00 0.0000000e+00 
1.5700000e+01 0.0000000e+00 0.0000000e+00 
1.5800000e+01 0.0000000e+00 0.0000000e+00 
1.5900000e+01 0.0000000e+00 0.0000000e+00 
1.6000000e+01 0.0000000e+00 0.0000000e+00 
1.6100000e+01 0.0000000e+00 0.0000000e+00 
1.6200001e+01 0.0000000e+00 0.0000000e+00 
1.6299999e+01 0.0000000e+00 0.0000000e+00 
1.6400000e+01 0.0000000e+00 0.0000000e+00 
1.6500000e+01 0.0000000e+00 0.0000000e+00 
1.6600000e+01 0.0000000e+00 0.0000000e+00 
1.6700001e+01 0.0000000e+00 0.0000000e+00 
1.6799999e+01 0.0000000e+00 0.0000000e+00 
1.6900000e+01 0.0000000e+00 0.0000000e+00 
1.7000000e+01 0.0000000e+00 0.0000000e+00 
1.7100000e+01 0.0000000e+00 0.0000000e+00 
1.7200001e+01 0.0000000e+00 0.0000000e+00 
1.7299999e+01 0.0000000e+00 0.0000000e+00 
1.7400000e+01 0.0000000e+00 0.0000000e+00 
1.7500000e+01 0.0000000e+00 0.0000000e+00 
1.7600000e+01 0.0000000e+00 0.0000000e+00 
1.7700001e+01 0.0000000e+00 0.0000000e+00 
1.7799999e+01 0.0000000e+00 0.0000000e+00 
1.7900000e+01 0.0000000e+00 0.0000000e+00 
1.8000000e+01 0.0000000e+00 0.0000000e+00 
1.8100000e+01 0.0000000e+00 0.0000000e+00 
1.8200001e+01 0.0000000e+00 0.0000000e+00 
1.8299999e+01 0.0000000e+00 0.0000000e+00 
1.8400000e+01 0.0000000e+00 0.0000000e+00 
1.8500000e+01 0.0000000e+00 0.0000000e+00 
1.8600000e+01 0.0000000e+00 0.0000000e+00 
1.8700001e+01 0.0000000e+00 0.0000000e+00 
1.8799999e+01 0.0000000e+00 0.0000000e+00 
1.8900000e+01 0.0000000e+00 0.0000000e+00 
1.9000000e+01 0.0000000e+00 0.0000000e+00 
1.9100000e+01 0.0000000e+00 0.0000000e+00 
1.9200001e+01 0.0000000e+00 0.0000000e+00 
1.9299999e+01 0.0000000e+00 0.0000000e+00 
1.9400000e+01 0.0000000e+00 0.0000000e+00 
1.9500000e+01 0.0000000e+00 0.0000000e+00 
1.9600000e+01 0.0000000e+00 0.0000000e+00 
1.9700001e+01 0.0000000e+00 0.0000000e+00 
1.9799999e+01 0.0000000e+00 0.0000000e+00 
1.9900000e+01 0.0000000e+00 0.0000000e+00 
2.0000000e+01 0.0000000e+00 0.0000000e+00 
2.0100000e+01 0.0000000e+00 0.0000000e+00 
2.0200001e+01 0.0000000e+00 0.0000000e+00 
2.0299999e+01 0.0000000e+00 0.0000000e+00 
2.0400000e+01 0.0000000e+00 0.0000000e+00 
2.0500000e+01 0.0000000e+00 0.0000000e+00 
2.0600000e+01 0.0000000e+00 0.0000000e+00 
2.0700001e+01 0.0000000e+00 0.0000000e+00 
2.0799999e+01 0.0000000e+00 0.0000000e+00 
2.0900000e+01 0.0000000e+00 0.0000000e+00 
2.1000000e+01 0.0000000e+00 0.0000000e+00 
2.1100000e+01 0.0000000e+00 0.0000000e+00 
2.1200001e+01 0.0000000e+00 0.0000000e+00 
2.1299999e+01 0.0000000e+00 0.0000000e+00 
2.1400000e+01 0.0000000e+00 0.0000000e+00 
2.1500000e+01 0.0000000e+00 0.0000000e+00 
2.1600000e+01 0.0000000e+00 0.0000000e+00 
2.1700001e+01 0.0000000e+00 0.0000000e+00 
2.1799999e+01 0.0000000e+00 0.0000000e+00 
2.1900000e+01 0.0000000e+00 0.0000000e+00 
2.2000000e+01 0.0000000e+00 0.0000000e+00 
2.2100000e+01 0.0000000e+00 0.0000000e+00 
2.2200001e+01 0.0000000e+00 0.0000000e+00 
2.2299999e+01 0.0000000e+00 0.0000000e+00 
2.2400000e+01 0.0000000e+00 0.0000000e+00 
2.2500000e+01 0.0000000e+00 0.0000000e+00 
2.2600000e+01 0.0000000e+00 0.0000000e+00 
2.2700001e+01 0.0000000e+00 0.0000000e+00 
2.2799999e+01 0.0000000e+00 0.0000000e+00 
2.2900000e+01 0.0000000e+00 0.0000000e+00 
2.3000000e+01 0.0000000e+00 0.0000000e+00 
2.3100000e+01 0.0000000e+00 0.0000000e+00 
2.3200001e+01 0.0000000e+00 0.0000000e+00 
2.3299999e+01 0.0000000e+00 0.0000000e+00 
2.3400000e+01 0.0000000e+00 0.0000000e+00 
2.3500000e+01 0.0000000e+00 0.0000000e+00 
2.3600000e+01 0.0000000e+00 0.0000000e+00 
2.3700001e+01 0.0000000e+00 0.0000000e+00 
2.3799999e+01 0.0000000e+00 0.0000000e+00 
2.3900000e+01 0.0000000e+00 0.0000000e+00 
2.4000000e+01 0.0000000e+00 0.0000000e+00 
2.4100000e+01 0.0000000e+00 0.0000000e+00 
2.4200001e+01 0.0000000e+00 0.0000000e+00 
2.4299999e+01 0.0000000e+00 0.0000000e+00 
2.4400000e+01 0.0000000e+00 0.0000000e+00 
2.4500000e+01 0.0000000e+00 0.0000000e+00 
2.4600000e+01 0.0000000e+00 0.0000000e+00 
2.4700001e+01 0.0000000e+00 0.0000000e+00 
2.4799999e+01 0.0000000e+00 0.0000000e+00 
2.4900000e+01 0.0000000e+00 0.0000000e+00 

CELLS 250 750
2 0 2
2 2 3
2 3 4
2 4 5
2 5 6
2 6 7
2 7 8
2 8 9
2 9 10
2 10 11
2 11 12
2 12 13
2 13 14
2 14 15
2 15 16
2 16 17
2 17 18
2 18 19
2 19 20
2 20 21
2 21 22
2 22 23
2 23 24
2 24 25
2 25 26
2 26 27
2 27 28
2 28 29
2 29 30
2 30 31
2 31 32
2 32 33
2 33 34
2 34 35
2 35 36
2 36 37
2 37 38
2 38 39
2 39 40
2 40 41
2 41 42
2 42 43
2 43 44
2 44 45
2 45 46
2 46 47
2 47 48
2 48 49
2 49 50
2 50 51
2 51 52
2 52 53
2 53 54
2 54 55
2 55 56
2 56 57
2 57 58
2 58 59
2 59 60
2 60 61
2 61 62
2 62 63
2 63 64
2 64 65
2 65 66
2 66 67
2 67 68
2 68 69
2 69 70
2 70 71
2 71 72
2 72 73
2 73 74
2 74 75
2 75 76
2 76 77
2 77 78
2 78 79
2 79 80
2 80 81
2 81 82
2 82 83
2 83 84
2 84 85
2 85 86
2 86 87
2 87 88
2 88 89
2 89 90
2 90 91
2 91 92
2 92 93
2 93 94
2 94 95
2 95 96
2 96 97
2 97 98
2 98 99
2 99 100
2 100 101
2 101 102
2 102 103
2 103 104
2 104 105
2 105 106
2 106 107
2 107 108
2 108 109
2 109 110
2 110 111
2 111 112
2 112 113
2 113 114
2 114 115
2 115 116
2 116 117
2 117 118
2 118 119
2 119 120
2 120 121
2 121 122
2 122 123
2 123 124
2 124 125
2 125 126
2 126 127
2 127 128
2 128 129
2 129 130
2 130 131
2 131 132
2 132 133
2 133 134
2 134 135
2 135 136
2 136 137
2 137 138
2 138 139
2 139 140
2 140 141
2 141 142
2 142 143
2 143 144
2 144 145
2 145 146
2 146 147
2 147 148
2 148 149
2 149 150
2 150 151
2 151 152
2 152 153
2 153 154
2 154 155
2 155 156
2 156 157
2 157 158
2 158 159
2 159 160
2 160 161
2 161 162
2 162 163
2 163 164
2 164 165
2 165 166
2 166 167
2 167 168
2 168 169
2 169 170
2 170 171
2 171 172
2 172 173
2 173 174
2 174 175
2 175 176
2 176 177
2 177 178
2 178 179
2 179 180
2 180 181
2 181 182
2 182 183
2 183 184
2 184 185
2 185 186
2 186 187
2 187 188
2 188 189
2 189 190
2 190 191
2 191 192
2 192 193
2 193 194
2 194 195
2 195 196
2 196 197
2 197 198
2 198 199
2 199 200
2 200 201
2 201 202
2 202 203
2 203 204
2 204 205
2 205 206
2 206 207
2 207 208
2 208 209
2 209 210
2 210 211
2 211 212
2 212 213
2 213 214
2 214 215
2 215 216
2 216 217
2 217 218
2 218 219
2 219 220
2 220 221
2 221 222
2 222 223
2 223 224
2 224 225
2 225 226
2 226 227
2 227 228
2 228 229
2 229 230
2 230 231
2 231 232
2 232 233
2 233 234
2 234 235
2 235 236
2 236 237
2 237 238
2 238 239
2 239 240
2 240 241
2 241 242
2 242 243
2 243 244
2 244 245
2 245 246
2 246 247
2 247 248
2 248 249
2 249 250
2 250 1

CELL_TYPES 250
3
3
3
3
3
3
3
3
3
3
3
3
3
3
3
3
3
3
3
3
3
3
3
3
3
3
3
3
3
3
3
3
3
3
3
3
3
3
3
3
3
3
3
3
3
3
3
3
3
3
3
3
3
3
3
3
3
3
3
3
3
3
3
3
3
3
3
3
3
3
3
3
3
3
3
3
3
3
3
3
3
3
3
3
3
3
3
3
3
3
3
3
3
3
3
3
3
3
3
3
3
3
3
3
3
3
3
3
3
3
3
3
3
3
3
3
3
3
3
3
3
3
3
3
3
3
3
3
3
3
3
3
3
3
3
3
3
3
3
3
3
3
3
3
3
3
3
3
3
3
3
3
3
3
3
3
3
3
3
3
3
3
3
3
3
3
3
3
3
3
3
3
3
3
3
3
3
3
3
3
3
3
3
3
3
3
3
3
3
3
3
3
3
3
3
3
3
3
3
3
3
3
3
3
3
3
3
3
3
3
3
3
3
3
3
3
3
3
3
3
3
3
3
3
3
3
3
3
3
3
3
3
3
3
3
3
3
3
3
3
3
3
3
3
3
3
3
3
3
3
POINT_DATA 251
FIELD FieldData 1
DISPLACEMENT 3 251  float
0.0000000e+00 0.0000000e+00 0.0000000e+00 
0.0000000e+00 0.0000000e+00 0.0000000e+00 
0.0000000e+00 -2.5665812e-04 0.0000000e+00 
0.0000000e+00 -5.1328953e-04 0.0000000e+00 
0.0000000e+00 -7.6986756e-04 0.0000000e+00 
0.0000000e+00 -1.0263654e-03 0.0000000e+00 
0.0000000e+00 -1.2827566e-03 0.0000000e+00 
0.0000000e+00 -1.5390142e-03 0.0000000e+00 
0.0000000e+00 -1.7951117e-03 0.0000000e+00 
0.0000000e+00 -2.0510221e-03 0.0000000e+00 
0.0000000e+00 -2.3067191e-03 0.0000000e+00 
0.0000000e+00 -2.5621757e-03 0.0000000e+00 
0.0000000e+00 -2.8173653e-03 0.0000000e+00 
0.0000000e+00 -3.0722613e-03 0.0000000e+00 
0.0000000e+00 -3.3268367e-03 0.0000000e+00 
0.0000000e+00 -3.5810652e-03 0.0000000e+00 
0.0000000e+00 -3.8349200e-03 0.0000000e+00 
0.0000000e+00 -4.0883739e-03 0.0000000e+00 
0.0000000e+00 -4.3414012e-03 0.0000000e+00 
0.0000000e+00 -4.5939740e-03 0.0000000e+00 
0.0000000e+00 -4.8460667e-03 0.0000000e+00 
0.0000000e+00 -5.0976519e-03 0.0000000e+00 
0.0000000e+00 -5.3487029e-03 0.0000000e+00 
0.0000000e+00 -5.5991933e-03 0.0000000e+00 
0.0000000e+00 -5.8490965e-03 0.0000000e+00 
0.0000000e+00 -6.0983854e-03 0.0000000e+00 
0.0000000e+00 -6.3470337e-03 0.0000000e+00 
0.0000000e+00 -6.5950141e-03 0.0000000e+00 
0.0000000e+00 -6.8423008e-03 0.0000000e+00 
0.0000000e+00 -7.0888666e-03 0.0000000e+00 
0.0000000e+00 -7.3346845e-03 0.0000000e+00 
0.0000000e+00 -7.5797280e-03 0.0000000e+00 
0.0000000e+00 -7.8239711e-03 0.0000000e+00 
0.0000000e+00 -8.0673862e-03 0.0000000e+00 
0.0000000e+00 -8.3099464e-03 0.0000000e+00 
0.0000000e+00 -8.5516265e-03 0.0000000e+00 
0.0000000e+00 -8.7923976e-03 0.0000000e+00 
0.0000000e+00 -9.0322355e-03 0.0000000e+00 
0.0000000e+00 -9.2711113e-03 0.0000000e+00 
0.0000000e+00 -9.5089991e-03 0.0000000e+00 
0.0000000e+00 -9.7458726e-03 0.0000000e+00 
0.0000000e+00 -9.9817049e-03 0.0000000e+00 
0.0000000e+00 -1.0216470e-02 0.0000000e+00 
0.0000000e+00 -1.0450139e-02 0.0000000e+00 
0.0000000e+00 -1.0682687e-02 0.0000000e+00 
0.0000000e+00 -1.0914087e-02 0.0000000e+00 
0.0000000e+00 -1.1144313e-02 0.0000000e+00 
0.0000000e+00 -1.1373336e-02 0.0000000e+00 
0.0000000e+00 -1.1601132e-02 0.0000000e+00 
0.0000000e+00 -1.1827673e-02 0.0000000e+00 
0.0000000e+00 -1.2052932e-02 0.0000000e+00 
0.0000000e+00 -1.2276883e-02 0.0000000e+00 
0.0000000e+00 -1.2499499e-02 0.0000000e+00 
0.0000000e+00 -1.2720753e-02 0.0000000e+00 
0.0000000e+00 -1.2940619e-02 0.0000000e+00 
0.0000000e+00 -1.3159070e-02 0.0000000e+00 
0.0000000e+00 -1.3376079e-02 0.0000000e+00 
0.0000000e+00 -1.3591619e-02 0.0000000e+00 
0.0000000e+00 -1.3805664e-02 0.0000000e+00 
0.0000000e+00 -1.4018188e-02 0.0000000e+00 
0.0000000e+00 -1.4229163e-02 0.0000000e+00 
0.0000000e+00 -1.4438562e-02 0.0000000e+00 
0.0000000e+00 -1.4646360e-02 0.0000000e+00 
0.0000000e+00 -1.4852528e-02 0.0000000e+00 
0.0000000e+00 -1.5057042e-02 0.0000000e+00 
0.0000000e+00 -1.5259873e-02 0.0000000e+00 
0.0000000e+00 -1.5460996e-02 0.0000000e+00 
0.0000000e+00 -1.5660383e-02 0.0000000e+00 
0.0000000e+00 -1.5858008e-02 0.0000000e+00 
0.0000000e+00 -1.6053844e-02 0.0000000e+00 
0.0000000e+00 -1.6247865e-02 0.0000000e+00 
0.0000000e+00 -1.6440043e-02 0.0000000e+00 
0.0000000e+00 -1.6630352e-02 0.0000000e+00 
0.0000000e+00 -1.6818766e-02 0.0000000e+00 
0.0000000e+00 -1.7005257e-02 0.0000000e+00 
0.0000000e+00 -1.7189799e-02 0.0000000e+00 
0.0000000e+00 -1.7372364e-02 0.0000000e+00 
0.0000000e+00 -1.7552929e-02 0.0000000e+00 
0.0000000e+00 -1.7731464e-02 0.0000000e+00 
0.0000000e+00 -1.7907942e-02 0.0000000e+00 
0.0000000e+00 -1.8082337e-02 0.0000000e+00 
0.0000000e+00 -1.8254625e-02 0.0000000e+00 
0.0000000e+00 -1.8424775e-02 0.0000000e+00 
0.0000000e+00 -1.8592764e-02 0.0000000e+00 
0.0000000e+00 -1.8758563e-02 0.0000000e+00 
0.0000000e+00 -1.8922145e-02 0.0000000e+00 
0.0000000e+00 -1.9083485e-02 0.0000000e+00 
0.0000000e+00 -1.9242555e-02 0.0000000e+00 
0.0000000e+00 -1.9399330e-02 0.0000000e+00 
0.0000000e+00 -1.9553781e-02 0.0000000e+00 
0.0000000e+00 -1.9705882e-02 0.0000000e+00 
0.0000000e+00 -1.9855609e-02 0.0000000e+00 
0.0000000e+00 -2.0002931e-02 0.0000000e+00 
0.0000000e+00 -2.0147825e-02 0.0000000e+00 
0.0000000e+00 -2.0290261e-02 0.0000000e+00 
0.0000000e+00 -2.0430215e-02 0.0000000e+00 
0.0000000e+00 -2.0567657e-02 0.0000000e+00 
0.0000000e+00 -2.0702565e-02 0.0000000e+00 
0.0000000e+00 -2.0834908e-02 0.0000000e+00 
0.0000000e+00 -2.0964663e-02 0.0000000e+00 
0.0000000e+00 -2.1091800e-02 0.0000000e+00 
0.0000000e+00 -2.1216294e-02 0.0000000e+00 
0.0000000e+00 -2.1338118e-02 0.0000000e+00 
0.0000000e+00 -2.1457246e-02 0.0000000e+00 
0.0000000e+00 -2.1573650e-02 0.0000000e+00 
0.0000000e+00 -2.1687305e-02 0.0000000e+00 
0.0000000e+00 -2.1798182e-02 0.0000000e+00 
0.0000000e+00 -2.1906257e-02 0.0000000e+00 
0.0000000e+00 -2.2011500e-02 0.0000000e+00 
0.0000000e+00 -2.2113886e-02 0.0000000e+00 
0.0000000e+00 -2.2213390e-02 0.0000000e+00 
0.0000000e+00 -2.2309983e-02 0.0000000e+00 
0.0000000e+00 -2.2403639e-02 0.0000000e+00 
0.0000000e+00 -2.2494331e-02 0.0000000e+00 
0.0000000e+00 -2.2582034e-02 0.0000000e+00 
0.0000000e+00 -2.2666717e-02 0.0000000e+00 
0.0000000e+00 -2.2748359e-02 0.0000000e+00 
0.0000000e+00 -2.2826929e-02 0.0000000e+00 
0.0000000e+00 -2.2902403e-02 0.0000000e+00 
0.0000000e+00 -2.2974752e-02 0.0000000e+00 
0.0000000e+00 -2.3043951e-02 0.0000000e+00 
0.0000000e+00 -2.3109972e-02 0.0000000e+00 
0.0000000e+00 -2.3172790e-02 0.0000000e+00 
0.0000000e+00 -2.3232378e-02 0.0000000e+00 
0.0000000e+00 -2.3288708e-02 0.0000000e+00 
0.0000000e+00 -2.3341753e-02 0.0000000e+00 
0.0000000e+00 -2.3391489e-02 0.0000000e+00 
0.0000000e+00 -2.3437886e-02 0.0000000e+00 
0.0000000e+00 -2.3480918e-02 0.0000000e+00 
0.0000000e+00 -2.3520561e-02 0.0000000e+00 
0.0000000e+00 -2.3556786e-02 0.0000000e+00 
0.0000000e+00 -2.3589566e-02 0.0000000e+00 
0.0000000e+00 -2.3618877e-02 0.0000000e+00 
0.0000000e+00 -2.3644688e-02 0.0000000e+00 
0.0000000e+00 -2.3666976e-02 0.0000000e+00 
0.0000000e+00 -2.3685712e-02 0.0000000e+00 
0.0000000e+00 -2.3700871e-02 0.0000000e+00 
0.0000000e+00 -2.3712425e-02 0.0000000e+00 
0.0000000e+00 -2.3720348e-02 0.0000000e+00 
0.0000000e+00 -2.3724614e-02 0.0000000e+00 
0.0000000e+00 -2.3725193e-02 0.0000000e+00 
0.0000000e+00 -2.3722064e-02 0.0000000e+00 
0.0000000e+00 -2.3715194e-02 0.0000000e+00 
0.0000000e+00 -2.3704560e-02 0.0000000e+00 
0.0000000e+00 -2.3690136e-02 0.0000000e+00 
0.0000000e+00 -2.3671893e-02 0.0000000e+00 
0.0000000e+00 -2.3649806e-02 0.0000000e+00 
0.0000000e+00 -2.3623846e-02 0.0000000e+00 
0.0000000e+00 -2.3593990e-02 0.0000000e+00 
0.0000000e+00 -2.3560207e-02 0.0000000e+00 
0.0000000e+00 -2.3522474e-02 0.0000000e+00 
0.0000000e+00 -2.3480762e-02 0.0000000e+00 
0.0000000e+00 -2.3435045e-02 0.0000000e+00 
0.0000000e+00 -2.3385298e-02 0.0000000e+00 
0.0000000e+00 -2.3331489e-02 0.0000000e+00 
0.0000000e+00 -2.3273598e-02 0.0000000e+00 
0.0000000e+00 -2.3211595e-02 0.0000000e+00 
0.0000000e+00 -2.3145452e-02 0.0000000e+00 
0.0000000e+00 -2.3075145e-02 0.0000000e+00 
0.0000000e+00 -2.3000646e-02 0.0000000e+00 
0.0000000e+00 -2.2921927e-02 0.0000000e+00 
0.0000000e+00 -2.2838965e-02 0.0000000e+00 
0.0000000e+00 -2.2751730e-02 0.0000000e+00 
0.0000000e+00 -2.2660196e-02 0.0000000e+00 
0.0000000e+00 -2.2564337e-02 0.0000000e+00 
0.0000000e+00 -2.2464126e-02 0.0000000e+00 
0.0000000e+00 -2.2359537e-02 0.0000000e+00 
0.0000000e+00 -2.2250541e-02 0.0000000e+00 
0.0000000e+00 -2.2137113e-02 0.0000000e+00 
0.0000000e+00 -2.2019228e-02 0.0000000e+00 
0.0000000e+00 -2.1896856e-02 0.0000000e+00 
0.0000000e+00 -2.1769971e-02 0.0000000e+00 
0.0000000e+00 -2.1638548e-02 0.0000000e+00 
0.0000000e+00 -2.1502560e-02 0.0000000e+00 
0.0000000e+00 -2.1361979e-02 0.0000000e+00 
0.0000000e+00 -2.1216778e-02 0.0000000e+00 
0.0000000e+00 -2.1066932e-02 0.0000000e+00 
0.0000000e+00 -2.0912414e-02 0.0000000e+00 
0.0000000e+00 -2.0753196e-02 0.0000000e+00 
0.0000000e+00 -2.0589253e-02 0.0000000e+00 
0.0000000e+00 -2.0420557e-02 0.0000000e+00 
0.0000000e+00 -2.0247081e-02 0.0000000e+00 
0.0000000e+00 -2.0068802e-02 0.0000000e+00 
0.0000000e+00 -1.9885736e-02 0.0000000e+00 
0.0000000e+00 -1.9697947e-02 0.0000000e+00 
0.0000000e+00 -1.9505508e-02 0.0000000e+00 
0.0000000e+00 -1.9308489e-02 0.0000000e+00 
0.0000000e+00 -1.9106956e-02 0.0000000e+00 
0.0000000e+00 -1.8900981e-02 0.0000000e+00 
0.0000000e+00 -1.8690631e-02 0.0000000e+00 
0.0000000e+00 -1.8475980e-02 0.0000000e+00 
0.0000000e+00 -1.8257091e-02 0.0000000e+00 
0.0000000e+00 -1.8034039e-02 0.0000000e+00 
0.0000000e+00 -1.7806891e-02 0.0000000e+00 
0.0000000e+00 -1.7575717e-02 0.0000000e+00 
0.0000000e+00 -1.7340584e-02 0.0000000e+00 
0.0000000e+00 -1.7101565e-02 0.0000000e+00 
0.0000000e+00 -1.6858729e-02 0.0000000e+00 
0.0000000e+00 -1.6612142e-02 0.0000000e+00 
0.0000000e+00 -1.6361877e-02 0.0000000e+00 
0.0000000e+00 -1.6108003e-02 0.0000000e+00 
0.0000000e+00 -1.5850587e-02 0.0000000e+00 
0.0000000e+00 -1.5589701e-02 0.0000000e+00 
0.0000000e+00 -1.5325414e-02 0.0000000e+00 
0.0000000e+00 -1.5057794e-02 0.0000000e+00 
0.0000000e+00 -1.4786911e-02 0.0000000e+00 
0.0000000e+00 -1.4512835e-02 0.0000000e+00 
0.0000000e+00 -1.4235635e-02 0.0000000e+00 
0.0000000e+00 -1.3955382e-02 0.0000000e+00 
0.0000000e+00 -1.3672142e-02 0.0000000e+00 
0.0000000e+00 -1.3385988e-02 0.0000000e+00 
0.0000000e+00 -1.3096986e-02 0.0000000e+00 
0.0000000e+00 -1.2805209e-02 0.0000000e+00 
0.0000000e+00 -1.2510723e-02 0.0000000e+00 
0.0000000e+00 -1.2213601e-02 0.0000000e+00 
0.0000000e+00 -1.1913909e-02 0.0000000e+00 
0.0000000e+00 -1.1611718e-02 0.0000000e+00 
0.0000000e+00 -1.1307098e-02 0.0000000e+00 
0.0000000e+00 -1.1000117e-02 0.0000000e+00 
0.0000000e+00 -1.0690846e-02 0.0000000e+00 
0.0000000e+00 -1.0379353e-02 0.0000000e+00 
0.0000000e+00 -1.0065707e-02 0.0000000e+00 
0.0000000e+00 -9.7499806e-03 0.0000000e+00 
0.0000000e+00 -9.4322395e-03 0.0000000e+00 
0.0000000e+00 -9.1125555e-03 0.0000000e+00 
0.0000000e+00 -8.7909969e-03 0.0000000e+00 
0.0000000e+00 -8.4676333e-03 0.0000000e+00 
0.0000000e+00 -8.1425337e-03 0.0000000e+00 
0.0000000e+00 -7.8157689e-03 0.0000000e+00 
0.0000000e+00 -7.4874070e-03 0.0000000e+00 
0.0000000e+00 -7.1575176e-03 0.0000000e+00 
0.0000000e+00 -6.8261707e-03 0.0000000e+00 
0.0000000e+00 -6.4934357e-03 0.0000000e+00 
0.0000000e+00 -6.1593815e-03 0.0000000e+00 
0.0000000e+00 -5.8240779e-03 0.0000000e+00 
0.0000000e+00 -5.4875938e-03 0.0000000e+00 
0.0000000e+00 -5.1499992e-03 0.0000000e+00 
0.0000000e+00 -4.8113633e-03 0.0000000e+00 
0.0000000e+00 -4.4717556e-03 0.0000000e+00 
0.0000000e+00 -4.1312454e-03 0.0000000e+00 
0.0000000e+00 -3.7899020e-03 0.0000000e+00 
0.0000000e+00 -3.4477951e-03 0.0000000e+00 
0.0000000e+00 -3.1049941e-03 0.0000000e+00 
0.0000000e+00 -2.7615682e-03 0.0000000e+00 
0.0000000e+00 -2.4175870e-03 0.0000000e+00 
0.0000000e+00 -2.0731199e-03 0.0000000e+00 
0.0000000e+00 -1.7282363e-03 0.0000000e+00 
0.0000000e+00 -1.3830055e-03 0.0000000e+00 
0.0000000e+00 -1.0374971e-03 0.0000000e+00 
0.0000000e+00 -6.9178047e-04 0.0000000e+00 
0.0000000e+00 -3.4592493e-04 0.0000000e+00 
CELL_DATA 250
FIELD FieldData 0
