# vtk DataFile Version 4.0
vtk output
ASCII
DATASET UNSTRUCTURED_GRID
POINTS 251 float
0.0000000e+00 0.0000000e+00 0.0000000e+00 
2.5000000e+01 0.0000000e+00 0.0000000e+00 
1.0000000e-01 0.0000000e+00 0.0000000e+00 
2.0000000e-01 0.0000000e+00 0.0000000e+00 
3.0000001e-01 0.0000000e+00 0.0000000e+00 
4.0000001e-01 0.0000000e+00 0.0000000e+00 
5.0000000e-01 0.0000000e+00 0.0000000e+00 
6.0000002e-01 0.0000000e+00 0.0000000e+00 
6.9999999e-01 0.0000000e+00 0.0000000e+00 
8.0000001e-01 0.0000000e+00 0.0000000e+00 
8.9999998e-01 0.0000000e+00 0.0000000e+00 
1.0000000e+00 0.0000000e+00 0.0000000e+00 
1.1000000e+00 0.0000000e+00 0.0000000e+00 
1.2000000e+00 0.0000000e+00 0.0000000e+00 
1.3000000e+00 0.0000000e+00 0.0000000e+00 
1.4000000e+00 0.0000000e+00 0.0000000e+00 
1.5000000e+00 0.0000000e+00 0.0000000e+00 
1.6000000e+00 0.0000000e+00 0.0000000e+00 
1.7000000e+00 0.0000000e+00 0.0000000e+00 
1.8000000e+00 0.0000000e+00 0.0000000e+00 
1.9000000e+00 0.0000000e+00 0.0000000e+00 
2.0000000e+00 0.0000000e+00 0.0000000e+00 
2.0999999e+00 0.0000000e+00 0.0000000e+00 
2.2000000e+00 0.0000000e+00 0.0000000e+00 
2.3000000e+00 0.0000000e+00 0.0000000e+00 
2.4000001e+00 0.0000000e+00 0.0000000e+00 
2.5000000e+00 0.0000000e+00 0.0000000e+00 
2.5999999e+00 0.0000000e+00 0.0000000e+00 
2.7000000e+00 0.0000000e+00 0.0000000e+00 
2.8000000e+00 0.0000000e+00 0.0000000e+00 
2.9000001e+00 0.0000000e+00 0.0000000e+00 
3.0000000e+00 0.0000000e+00 0.0000000e+00 
3.0999999e+00 0.0000000e+00 0.0000000e+00 
3.2000000e+00 0.0000000e+00 0.0000000e+00 
3.3000000e+00 0.0000000e+00 0.0000000e+00 
3.4000001e+00 0.0000000e+00 0.0000000e+00 
3.5000000e+00 0.0000000e+00 0.0000000e+00 
3.5999999e+00 0.0000000e+00 0.0000000e+00 
3.7000000e+00 0.0000000e+00 0.0000000e+00 
3.8000000e+00 0.0000000e+00 0.0000000e+00 
3.9000001e+00 0.0000000e+00 0.0000000e+00 
4.0000000e+00 0.0000000e+00 0.0000000e+00 
4.0999999e+00 0.0000000e+00 0.0000000e+00 
4.1999998e+00 0.0000000e+00 0.0000000e+00 
4.3000002e+00 0.0000000e+00 0.0000000e+00 
4.4000001e+00 0.0000000e+00 0.0000000e+00 
4.5000000e+00 0.0000000e+00 0.0000000e+00 
4.5999999e+00 0.0000000e+00 0.0000000e+00 
4.6999998e+00 0.0000000e+00 0.0000000e+00 
4.8000002e+00 0.0000000e+00 0.0000000e+00 
4.9000001e+00 0.0000000e+00 0.0000000e+00 
5.0000000e+00 0.0000000e+00 0.0000000e+00 
5.0999999e+00 0.0000000e+00 0.0000000e+00 
5.1999998e+00 0.0000000e+00 0.0000000e+00 
5.3000002e+00 0.0000000e+00 0.0000000e+00 
5.4000001e+00 0.0000000e+00 0.0000000e+00 
5.5000000e+00 0.0000000e+00 0.0000000e+00 
5.5999999e+00 0.0000000e+00 0.0000000e+00 
5.6999998e+00 0.0000000e+00 0.0000000e+00 
5.8000002e+00 0.0000000e+00 0.0000000e+00 
5.9000001e+00 0.0000000e+00 0.0000000e+00 
6.0000000e+00 0.0000000e+00 0.0000000e+00 
6.0999999e+00 0.0000000e+00 0.0000000e+00 
6.1999998e+00 0.0000000e+00 0.0000000e+00 
6.3000002e+00 0.0000000e+00 0.0000000e+00 
6.4000001e+00 0.0000000e+00 0.0000000e+00 
6.5000000e+00 0.0000000e+00 0.0000000e+00 
6.5999999e+00 0.0000000e+00 0.0000000e+00 
6.6999998e+00 0.0000000e+00 0.0000000e+00 
6.8000002e+00 0.0000000e+00 0.0000000e+00 
6.9000001e+00 0.0000000e+00 0.0000000e+00 
7.0000000e+00 0.0000000e+00 0.0000000e+00 
7.0999999e+00 0.0000000e+00 0.0000000e+00 
7.1999998e+00 0.0000000e+00 0.0000000e+00 
7.3000002e+00 0.0000000e+00 0.0000000e+00 
7.4000001e+00 0.0000000e+00 0.0000000e+00 
7.5000000e+00 0.0000000e+00 0.0000000e+00 
7.5999999e+00 0.0000000e+00 0.0000000e+00 
7.6999998e+00 0.0000000e+00 0.0000000e+00 
7.8000002e+00 0.0000000e+00 0.0000000e+00 
7.9000001e+00 0.0000000e+00 0.0000000e+00 
8.0000000e+00 0.0000000e+00 0.0000000e+00 
8.1000004e+00 0.0000000e+00 0.0000000e+00 
8.1999998e+00 0.0000000e+00 0.0000000e+00 
8.3000002e+00 0.0000000e+00 0.0000000e+00 
8.3999996e+00 0.0000000e+00 0.0000000e+00 
8.5000000e+00 0.0000000e+00 0.0000000e+00 
8.6000004e+00 0.0000000e+00 0.0000000e+00 
8.6999998e+00 0.0000000e+00 0.0000000e+00 
8.8000002e+00 0.0000000e+00 0.0000000e+00 
8.8999996e+00 0.0000000e+00 0.0000000e+00 
9.0000000e+00 0.0000000e+00 0.0000000e+00 
9.1000004e+00 0.0000000e+00 0.0000000e+00 
9.1999998e+00 0.0000000e+00 0.0000000e+00 
9.3000002e+00 0.0000000e+00 0.0000000e+00 
9.3999996e+00 0.0000000e+00 0.0000000e+00 
9.5000000e+00 0.0000000e+00 0.0000000e+00 
9.6000004e+00 0.0000000e+00 0.0000000e+00 
9.6999998e+00 0.0000000e+00 0.0000000e+00 
9.8000002e+00 0.0000000e+00 0.0000000e+00 
9.8999996e+00 0.0000000e+00 0.0000000e+00 
1.0000000e+01 0.0000000e+00 0.0000000e+00 
1.0100000e+01 0.0000000e+00 0.0000000e+00 
1.0200000e+01 0.0000000e+00 0.0000000e+00 
1.0300000e+01 0.0000000e+00 0.0000000e+00 
1.0400000e+01 0.0000000e+00 0.0000000e+00 
1.0500000e+01 0.0000000e+00 0.0000000e+00 
1.0600000e+01 0.0000000e+00 0.0000000e+00 
1.0700000e+01 0.0000000e+00 0.0000000e+00 
1.0800000e+01 0.0000000e+00 0.0000000e+00 
1.0900000e+01 0.0000000e+00 0.0000000e+00 
1.1000000e+01 0.0000000e+00 0.0000000e+00 
1.1100000e+01 0.0000000e+00 0.0000000e+00 
1.1200000e+01 0.0000000e+00 0.0000000e+00 
1.1300000e+01 0.0000000e+00 0.0000000e+00 
1.1400000e+01 0.0000000e+00 0.0000000e+00 
1.1500000e+01 0.0000000e+00 0.0000000e+00 
1.1600000e+01 0.0000000e+00 0.0000000e+00 
1.1700000e+01 0.0000000e+00 0.0000000e+00 
1.1800000e+01 0.0000000e+00 0.0000000e+00 
1.1900000e+01 0.0000000e+00 0.0000000e+00 
1.2000000e+01 0.0000000e+00 0.0000000e+00 
1.2100000e+01 0.0000000e+00 0.0000000e+00 
1.2200000e+01 0.0000000e+00 0.0000000e+00 
1.2300000e+01 0.0000000e+00 0.0000000e+00 
1.2400000e+01 0.0000000e+00 0.0000000e+00 
1.2500000e+01 0.0000000e+00 0.0000000e+00 
1.2600000e+01 0.0000000e+00 0.0000000e+00 
1.2700000e+01 0.0000000e+00 0.0000000e+00 
1.2800000e+01 0.0000000e+00 0.0000000e+00 
1.2900000e+01 0.0000000e+00 0.0000000e+00 
1.3000000e+01 0.0000000e+00 0.0000000e+00 
1.3100000e+01 0.0000000e+00 0.0000000e+00 
1.3200000e+01 0.0000000e+00 0.0000000e+00 
1.3300000e+01 0.0000000e+00 0.0000000e+00 
1.3400000e+01 0.0000000e+00 0.0000000e+00 
1.3500000e+01 0.0000000e+00 0.0000000e+00 
1.3600000e+01 0.0000000e+00 0.0000000e+00 
1.3700000e+01 0.0000000e+00 0.0000000e+00 
1.3800000e+01 0.0000000e+00 0.0000000e+00 
1.3900000e+01 0.0000000e+00 0.0000000e+00 
1.4000000e+01 0.0000000e+00 0.0000000e+00 
1.4100000e+01 0.0000000e+00 0.0000000e+00 
1.4200000e+01 0.0000000e+00 0.0000000e+00 
1.4300000e+01 0.0000000e+00 0.0000000e+00 
1.4400000e+01 0.0000000e+00 0.0000000e+00 
1.4500000e+01 0.0000000e+00 0.0000000e+00 
1.4600000e+01 0.0000000e+00 0.0000000e+00 
1.4700000e+01 0.0000000e+00 0.0000000e+00 
1.4800000e+01 0.0000000e+00 0.0000000e+00 
1.4900000e+01 0.0000000e+00 0.0000000e+00 
1.5000000e+01 0.0000000e+00 0.0000000e+00 
1.5100000e+01 0.0000000e+00 0.0000000e+00 
1.5200000e+01 0.0000000e+00 0.0000000e+00 
1.5300000e+01 0.0000000e+00 0.0000000e+00 
1.5400000e+01 0.0000000e+00 0.0000000e+00 
1.5500000e+01 0.0000000e+00 0.0000000e+00 
1.5600000e+01 0.0000000e+00 0.0000000e+00 
1.5700000e+01 0.0000000e+00 0.0000000e+00 
1.5800000e+01 0.0000000e+00 0.0000000e+00 
1.5900000e+01 0.0000000e+00 0.0000000e+00 
1.6000000e+01 0.0000000e+00 0.0000000e+00 
1.6100000e+01 0.0000000e+00 0.0000000e+00 
1.6200001e+01 0.0000000e+00 0.0000000e+00 
1.6299999e+01 0.0000000e+00 0.0000000e+00 
1.6400000e+01 0.0000000e+00 0.0000000e+00 
1.6500000e+01 0.0000000e+00 0.0000000e+00 
1.6600000e+01 0.0000000e+00 0.0000000e+00 
1.6700001e+01 0.0000000e+00 0.0000000e+00 
1.6799999e+01 0.0000000e+00 0.0000000e+00 
1.6900000e+01 0.0000000e+00 0.0000000e+00 
1.7000000e+01 0.0000000e+00 0.0000000e+00 
1.7100000e+01 0.0000000e+00 0.0000000e+00 
1.7200001e+01 0.0000000e+00 0.0000000e+00 
1.7299999e+01 0.0000000e+00 0.0000000e+00 
1.7400000e+01 0.0000000e+00 0.0000000e+00 
1.7500000e+01 0.0000000e+00 0.0000000e+00 
1.7600000e+01 0.0000000e+00 0.0000000e+00 
1.7700001e+01 0.0000000e+00 0.0000000e+00 
1.7799999e+01 0.0000000e+00 0.0000000e+00 
1.7900000e+01 0.0000000e+00 0.0000000e+00 
1.8000000e+01 0.0000000e+00 0.0000000e+00 
1.8100000e+01 0.0000000e+00 0.0000000e+00 
1.8200001e+01 0.0000000e+00 0.0000000e+00 
1.8299999e+01 0.0000000e+00 0.0000000e+00 
1.8400000e+01 0.0000000e+00 0.0000000e+00 
1.8500000e+01 0.0000000e+00 0.0000000e+00 
1.8600000e+01 0.0000000e+00 0.0000000e+00 
1.8700001e+01 0.0000000e+00 0.0000000e+00 
1.8799999e+01 0.0000000e+00 0.0000000e+00 
1.8900000e+01 0.0000000e+00 0.0000000e+00 
1.9000000e+01 0.0000000e+00 0.0000000e+00 
1.9100000e+01 0.0000000e+00 0.0000000e+00 
1.9200001e+01 0.0000000e+00 0.0000000e+00 
1.9299999e+01 0.0000000e+00 0.0000000e+00 
1.9400000e+01 0.0000000e+00 0.0000000e+00 
1.9500000e+01 0.0000000e+00 0.0000000e+00 
1.9600000e+01 0.0000000e+00 0.0000000e+00 
1.9700001e+01 0.0000000e+00 0.0000000e+00 
1.9799999e+01 0.0000000e+00 0.0000000e+00 
1.9900000e+01 0.0000000e+00 0.0000000e+00 
2.0000000e+01 0.0000000e+00 0.0000000e+00 
2.0100000e+01 0.0000000e+00 0.0000000e+00 
2.0200001e+01 0.0000000e+00 0.0000000e+00 
2.0299999e+01 0.0000000e+00 0.0000000e+00 
2.0400000e+01 0.0000000e+00 0.0000000e+00 
2.0500000e+01 0.0000000e+00 0.0000000e+00 
2.0600000e+01 0.0000000e+00 0.0000000e+00 
2.0700001e+01 0.0000000e+00 0.0000000e+00 
2.0799999e+01 0.0000000e+00 0.0000000e+00 
2.0900000e+01 0.0000000e+00 0.0000000e+00 
2.1000000e+01 0.0000000e+00 0.0000000e+00 
2.1100000e+01 0.0000000e+00 0.0000000e+00 
2.1200001e+01 0.0000000e+00 0.0000000e+00 
2.1299999e+01 0.0000000e+00 0.0000000e+00 
2.1400000e+01 0.0000000e+00 0.0000000e+00 
2.1500000e+01 0.0000000e+00 0.0000000e+00 
2.1600000e+01 0.0000000e+00 0.0000000e+00 
2.1700001e+01 0.0000000e+00 0.0000000e+00 
2.1799999e+01 0.0000000e+00 0.0000000e+00 
2.1900000e+01 0.0000000e+00 0.0000000e+00 
2.2000000e+01 0.0000000e+00 0.0000000e+00 
2.2100000e+01 0.0000000e+00 0.0000000e+00 
2.2200001e+01 0.0000000e+00 0.0000000e+00 
2.2299999e+01 0.0000000e+00 0.0000000e+00 
2.2400000e+01 0.0000000e+00 0.0000000e+00 
2.2500000e+01 0.0000000e+00 0.0000000e+00 
2.2600000e+01 0.0000000e+00 0.0000000e+00 
2.2700001e+01 0.0000000e+00 0.0000000e+00 
2.2799999e+01 0.0000000e+00 0.0000000e+00 
2.2900000e+01 0.0000000e+00 0.0000000e+00 
2.3000000e+01 0.0000000e+00 0.0000000e+00 
2.3100000e+01 0.0000000e+00 0.0000000e+00 
2.3200001e+01 0.0000000e+00 0.0000000e+00 
2.3299999e+01 0.0000000e+00 0.0000000e+00 
2.3400000e+01 0.0000000e+00 0.0000000e+00 
2.3500000e+01 0.0000000e+00 0.0000000e+00 
2.3600000e+01 0.0000000e+00 0.0000000e+00 
2.3700001e+01 0.0000000e+00 0.0000000e+00 
2.3799999e+01 0.0000000e+00 0.0000000e+00 
2.3900000e+01 0.0000000e+00 0.0000000e+00 
2.4000000e+01 0.0000000e+00 0.0000000e+00 
2.4100000e+01 0.0000000e+00 0.0000000e+00 
2.4200001e+01 0.0000000e+00 0.0000000e+00 
2.4299999e+01 0.0000000e+00 0.0000000e+00 
2.4400000e+01 0.0000000e+00 0.0000000e+00 
2.4500000e+01 0.0000000e+00 0.0000000e+00 
2.4600000e+01 0.0000000e+00 0.0000000e+00 
2.4700001e+01 0.0000000e+00 0.0000000e+00 
2.4799999e+01 0.0000000e+00 0.0000000e+00 
2.4900000e+01 0.0000000e+00 0.0000000e+00 

CELLS 250 750
2 0 2
2 2 3
2 3 4
2 4 5
2 5 6
2 6 7
2 7 8
2 8 9
2 9 10
2 10 11
2 11 12
2 12 13
2 13 14
2 14 15
2 15 16
2 16 17
2 17 18
2 18 19
2 19 20
2 20 21
2 21 22
2 22 23
2 23 24
2 24 25
2 25 26
2 26 27
2 27 28
2 28 29
2 29 30
2 30 31
2 31 32
2 32 33
2 33 34
2 34 35
2 35 36
2 36 37
2 37 38
2 38 39
2 39 40
2 40 41
2 41 42
2 42 43
2 43 44
2 44 45
2 45 46
2 46 47
2 47 48
2 48 49
2 49 50
2 50 51
2 51 52
2 52 53
2 53 54
2 54 55
2 55 56
2 56 57
2 57 58
2 58 59
2 59 60
2 60 61
2 61 62
2 62 63
2 63 64
2 64 65
2 65 66
2 66 67
2 67 68
2 68 69
2 69 70
2 70 71
2 71 72
2 72 73
2 73 74
2 74 75
2 75 76
2 76 77
2 77 78
2 78 79
2 79 80
2 80 81
2 81 82
2 82 83
2 83 84
2 84 85
2 85 86
2 86 87
2 87 88
2 88 89
2 89 90
2 90 91
2 91 92
2 92 93
2 93 94
2 94 95
2 95 96
2 96 97
2 97 98
2 98 99
2 99 100
2 100 101
2 101 102
2 102 103
2 103 104
2 104 105
2 105 106
2 106 107
2 107 108
2 108 109
2 109 110
2 110 111
2 111 112
2 112 113
2 113 114
2 114 115
2 115 116
2 116 117
2 117 118
2 118 119
2 119 120
2 120 121
2 121 122
2 122 123
2 123 124
2 124 125
2 125 126
2 126 127
2 127 128
2 128 129
2 129 130
2 130 131
2 131 132
2 132 133
2 133 134
2 134 135
2 135 136
2 136 137
2 137 138
2 138 139
2 139 140
2 140 141
2 141 142
2 142 143
2 143 144
2 144 145
2 145 146
2 146 147
2 147 148
2 148 149
2 149 150
2 150 151
2 151 152
2 152 153
2 153 154
2 154 155
2 155 156
2 156 157
2 157 158
2 158 159
2 159 160
2 160 161
2 161 162
2 162 163
2 163 164
2 164 165
2 165 166
2 166 167
2 167 168
2 168 169
2 169 170
2 170 171
2 171 172
2 172 173
2 173 174
2 174 175
2 175 176
2 176 177
2 177 178
2 178 179
2 179 180
2 180 181
2 181 182
2 182 183
2 183 184
2 184 185
2 185 186
2 186 187
2 187 188
2 188 189
2 189 190
2 190 191
2 191 192
2 192 193
2 193 194
2 194 195
2 195 196
2 196 197
2 197 198
2 198 199
2 199 200
2 200 201
2 201 202
2 202 203
2 203 204
2 204 205
2 205 206
2 206 207
2 207 208
2 208 209
2 209 210
2 210 211
2 211 212
2 212 213
2 213 214
2 214 215
2 215 216
2 216 217
2 217 218
2 218 219
2 219 220
2 220 221
2 221 222
2 222 223
2 223 224
2 224 225
2 225 226
2 226 227
2 227 228
2 228 229
2 229 230
2 230 231
2 231 232
2 232 233
2 233 234
2 234 235
2 235 236
2 236 237
2 237 238
2 238 239
2 239 240
2 240 241
2 241 242
2 242 243
2 243 244
2 244 245
2 245 246
2 246 247
2 247 248
2 248 249
2 249 250
2 250 1

CELL_TYPES 250
3
3
3
3
3
3
3
3
3
3
3
3
3
3
3
3
3
3
3
3
3
3
3
3
3
3
3
3
3
3
3
3
3
3
3
3
3
3
3
3
3
3
3
3
3
3
3
3
3
3
3
3
3
3
3
3
3
3
3
3
3
3
3
3
3
3
3
3
3
3
3
3
3
3
3
3
3
3
3
3
3
3
3
3
3
3
3
3
3
3
3
3
3
3
3
3
3
3
3
3
3
3
3
3
3
3
3
3
3
3
3
3
3
3
3
3
3
3
3
3
3
3
3
3
3
3
3
3
3
3
3
3
3
3
3
3
3
3
3
3
3
3
3
3
3
3
3
3
3
3
3
3
3
3
3
3
3
3
3
3
3
3
3
3
3
3
3
3
3
3
3
3
3
3
3
3
3
3
3
3
3
3
3
3
3
3
3
3
3
3
3
3
3
3
3
3
3
3
3
3
3
3
3
3
3
3
3
3
3
3
3
3
3
3
3
3
3
3
3
3
3
3
3
3
3
3
3
3
3
3
3
3
3
3
3
3
3
3
3
3
3
3
3
3
3
3
3
3
3
3
POINT_DATA 251
FIELD FieldData 1
DISPLACEMENT 3 251  float
0.0000000e+00 0.0000000e+00 0.0000000e+00 
0.0000000e+00 0.0000000e+00 0.0000000e+00 
0.0000000e+00 -3.0763927e-04 0.0000000e+00 
0.0000000e+00 -6.1520375e-04 0.0000000e+00 
0.0000000e+00 -9.2261872e-04 0.0000000e+00 
0.0000000e+00 -1.2298095e-03 0.0000000e+00 
0.0000000e+00 -1.5367011e-03 0.0000000e+00 
0.0000000e+00 -1.8432190e-03 0.0000000e+00 
0.0000000e+00 -2.1492883e-03 0.0000000e+00 
0.0000000e+00 -2.4548343e-03 0.0000000e+00 
0.0000000e+00 -2.7597821e-03 0.0000000e+00 
0.0000000e+00 -3.0640573e-03 0.0000000e+00 
0.0000000e+00 -3.3675849e-03 0.0000000e+00 
0.0000000e+00 -3.6702899e-03 0.0000000e+00 
0.0000000e+00 -3.9720978e-03 0.0000000e+00 
0.0000000e+00 -4.2729340e-03 0.0000000e+00 
0.0000000e+00 -4.5727235e-03 0.0000000e+00 
0.0000000e+00 -4.8713917e-03 0.0000000e+00 
0.0000000e+00 -5.1688636e-03 0.0000000e+00 
0.0000000e+00 -5.4650647e-03 0.0000000e+00 
0.0000000e+00 -5.7599205e-03 0.0000000e+00 
0.0000000e+00 -6.0533551e-03 0.0000000e+00 
0.0000000e+00 -6.3452949e-03 0.0000000e+00 
0.0000000e+00 -6.6356650e-03 0.0000000e+00 
0.0000000e+00 -6.9243899e-03 0.0000000e+00 
0.0000000e+00 -7.2113955e-03 0.0000000e+00 
0.0000000e+00 -7.4966070e-03 0.0000000e+00 
0.0000000e+00 -7.7799498e-03 0.0000000e+00 
0.0000000e+00 -8.0613485e-03 0.0000000e+00 
0.0000000e+00 -8.3407285e-03 0.0000000e+00 
0.0000000e+00 -8.6180158e-03 0.0000000e+00 
0.0000000e+00 -8.8931341e-03 0.0000000e+00 
0.0000000e+00 -9.1660107e-03 0.0000000e+00 
0.0000000e+00 -9.4365692e-03 0.0000000e+00 
0.0000000e+00 -9.7047351e-03 0.0000000e+00 
0.0000000e+00 -9.9704349e-03 0.0000000e+00 
0.0000000e+00 -1.0233592e-02 0.0000000e+00 
0.0000000e+00 -1.0494133e-02 0.0000000e+00 
0.0000000e+00 -1.0751982e-02 0.0000000e+00 
0.0000000e+00 -1.1007066e-02 0.0000000e+00 
0.0000000e+00 -1.1259309e-02 0.0000000e+00 
0.0000000e+00 -1.1508635e-02 0.0000000e+00 
0.0000000e+00 -1.1754972e-02 0.0000000e+00 
0.0000000e+00 -1.1998244e-02 0.0000000e+00 
0.0000000e+00 -1.2238375e-02 0.0000000e+00 
0.0000000e+00 -1.2475292e-02 0.0000000e+00 
0.0000000e+00 -1.2708919e-02 0.0000000e+00 
0.0000000e+00 -1.2939183e-02 0.0000000e+00 
0.0000000e+00 -1.3166008e-02 0.0000000e+00 
0.0000000e+00 -1.3389318e-02 0.0000000e+00 
0.0000000e+00 -1.3609041e-02 0.0000000e+00 
0.0000000e+00 -1.3825099e-02 0.0000000e+00 
0.0000000e+00 -1.4037420e-02 0.0000000e+00 
0.0000000e+00 -1.4245928e-02 0.0000000e+00 
0.0000000e+00 -1.4450549e-02 0.0000000e+00 
0.0000000e+00 -1.4651208e-02 0.0000000e+00 
0.0000000e+00 -1.4847830e-02 0.0000000e+00 
0.0000000e+00 -1.5040341e-02 0.0000000e+00 
0.0000000e+00 -1.5228711e-02 0.0000000e+00 
0.0000000e+00 -1.5412959e-02 0.0000000e+00 
0.0000000e+00 -1.5593106e-02 0.0000000e+00 
0.0000000e+00 -1.5769172e-02 0.0000000e+00 
0.0000000e+00 -1.5941180e-02 0.0000000e+00 
0.0000000e+00 -1.6109152e-02 0.0000000e+00 
0.0000000e+00 -1.6273109e-02 0.0000000e+00 
0.0000000e+00 -1.6433069e-02 0.0000000e+00 
0.0000000e+00 -1.6589059e-02 0.0000000e+00 
0.0000000e+00 -1.6741095e-02 0.0000000e+00 
0.0000000e+00 -1.6889203e-02 0.0000000e+00 
0.0000000e+00 -1.7033400e-02 0.0000000e+00 
0.0000000e+00 -1.7173711e-02 0.0000000e+00 
0.0000000e+00 -1.7310156e-02 0.0000000e+00 
0.0000000e+00 -1.7442755e-02 0.0000000e+00 
0.0000000e+00 -1.7571531e-02 0.0000000e+00 
0.0000000e+00 -1.7696505e-02 0.0000000e+00 
0.0000000e+00 -1.7817700e-02 0.0000000e+00 
0.0000000e+00 -1.7935134e-02 0.0000000e+00 
0.0000000e+00 -1.8048830e-02 0.0000000e+00 
0.0000000e+00 -1.8158810e-02 0.0000000e+00 
0.0000000e+00 -1.8265095e-02 0.0000000e+00 
0.0000000e+00 -1.8367704e-02 0.0000000e+00 
0.0000000e+00 -1.8466663e-02 0.0000000e+00 
0.0000000e+00 -1.8561989e-02 0.0000000e+00 
0.0000000e+00 -1.8653706e-02 0.0000000e+00 
0.0000000e+00 -1.8741835e-02 0.0000000e+00 
0.0000000e+00 -1.8826397e-02 0.0000000e+00 
0.0000000e+00 -1.8907413e-02 0.0000000e+00 
0.0000000e+00 -1.8984905e-02 0.0000000e+00 
0.0000000e+00 -1.9058893e-02 0.0000000e+00 
0.0000000e+00 -1.9129399e-02 0.0000000e+00 
0.0000000e+00 -1.9196445e-02 0.0000000e+00 
0.0000000e+00 -1.9260053e-02 0.0000000e+00 
0.0000000e+00 -1.9320242e-02 0.0000000e+00 
0.0000000e+00 -1.9377036e-02 0.0000000e+00 
0.0000000e+00 -1.9430455e-02 0.0000000e+00 
0.0000000e+00 -1.9480521e-02 0.0000000e+00 
0.0000000e+00 -1.9527253e-02 0.0000000e+00 
0.0000000e+00 -1.9570677e-02 0.0000000e+00 
0.0000000e+00 -1.9610809e-02 0.0000000e+00 
0.0000000e+00 -1.9647675e-02 0.0000000e+00 
0.0000000e+00 -1.9681292e-02 0.0000000e+00 
0.0000000e+00 -1.9711684e-02 0.0000000e+00 
0.0000000e+00 -1.9738873e-02 0.0000000e+00 
0.0000000e+00 -1.9762881e-02 0.0000000e+00 
0.0000000e+00 -1.9783726e-02 0.0000000e+00 
0.0000000e+00 -1.9801430e-02 0.0000000e+00 
0.0000000e+00 -1.9816017e-02 0.0000000e+00 
0.0000000e+00 -1.9827507e-02 0.0000000e+00 
0.0000000e+00 -1.9835921e-02 0.0000000e+00 
0.0000000e+00 -1.9841280e-02 0.0000000e+00 
0.0000000e+00 -1.9843606e-02 0.0000000e+00 
0.0000000e+00 -1.9842921e-02 0.0000000e+00 
0.0000000e+00 -1.9839244e-02 0.0000000e+00 
0.0000000e+00 -1.9832600e-02 0.0000000e+00 
0.0000000e+00 -1.9823007e-02 0.0000000e+00 
0.0000000e+00 -1.9810488e-02 0.0000000e+00 
0.0000000e+00 -1.9795064e-02 0.0000000e+00 
0.0000000e+00 -1.9776758e-02 0.0000000e+00 
0.0000000e+00 -1.9755587e-02 0.0000000e+00 
0.0000000e+00 -1.9731577e-02 0.0000000e+00 
0.0000000e+00 -1.9704746e-02 0.0000000e+00 
0.0000000e+00 -1.9675119e-02 0.0000000e+00 
0.0000000e+00 -1.9642714e-02 0.0000000e+00 
0.0000000e+00 -1.9607553e-02 0.0000000e+00 
0.0000000e+00 -1.9569660e-02 0.0000000e+00 
0.0000000e+00 -1.9529052e-02 0.0000000e+00 
0.0000000e+00 -1.9485753e-02 0.0000000e+00 
0.0000000e+00 -1.9439785e-02 0.0000000e+00 
0.0000000e+00 -1.9391168e-02 0.0000000e+00 
0.0000000e+00 -1.9339925e-02 0.0000000e+00 
0.0000000e+00 -1.9286074e-02 0.0000000e+00 
0.0000000e+00 -1.9229639e-02 0.0000000e+00 
0.0000000e+00 -1.9170642e-02 0.0000000e+00 
0.0000000e+00 -1.9109102e-02 0.0000000e+00 
0.0000000e+00 -1.9045042e-02 0.0000000e+00 
0.0000000e+00 -1.8978482e-02 0.0000000e+00 
0.0000000e+00 -1.8909445e-02 0.0000000e+00 
0.0000000e+00 -1.8837951e-02 0.0000000e+00 
0.0000000e+00 -1.8764023e-02 0.0000000e+00 
0.0000000e+00 -1.8687680e-02 0.0000000e+00 
0.0000000e+00 -1.8608946e-02 0.0000000e+00 
0.0000000e+00 -1.8527841e-02 0.0000000e+00 
0.0000000e+00 -1.8444387e-02 0.0000000e+00 
0.0000000e+00 -1.8358603e-02 0.0000000e+00 
0.0000000e+00 -1.8270513e-02 0.0000000e+00 
0.0000000e+00 -1.8180138e-02 0.0000000e+00 
0.0000000e+00 -1.8087499e-02 0.0000000e+00 
0.0000000e+00 -1.7992616e-02 0.0000000e+00 
0.0000000e+00 -1.7895512e-02 0.0000000e+00 
0.0000000e+00 -1.7796209e-02 0.0000000e+00 
0.0000000e+00 -1.7694727e-02 0.0000000e+00 
0.0000000e+00 -1.7591085e-02 0.0000000e+00 
0.0000000e+00 -1.7485309e-02 0.0000000e+00 
0.0000000e+00 -1.7377419e-02 0.0000000e+00 
0.0000000e+00 -1.7267436e-02 0.0000000e+00 
0.0000000e+00 -1.7155381e-02 0.0000000e+00 
0.0000000e+00 -1.7041273e-02 0.0000000e+00 
0.0000000e+00 -1.6925139e-02 0.0000000e+00 
0.0000000e+00 -1.6806995e-02 0.0000000e+00 
0.0000000e+00 -1.6686866e-02 0.0000000e+00 
0.0000000e+00 -1.6564772e-02 0.0000000e+00 
0.0000000e+00 -1.6440732e-02 0.0000000e+00 
0.0000000e+00 -1.6314771e-02 0.0000000e+00 
0.0000000e+00 -1.6186910e-02 0.0000000e+00 
0.0000000e+00 -1.6057167e-02 0.0000000e+00 
0.0000000e+00 -1.5925568e-02 0.0000000e+00 
0.0000000e+00 -1.5792131e-02 0.0000000e+00 
0.0000000e+00 -1.5656879e-02 0.0000000e+00 
0.0000000e+00 -1.5519832e-02 0.0000000e+00 
0.0000000e+00 -1.5381012e-02 0.0000000e+00 
0.0000000e+00 -1.5240441e-02 0.0000000e+00 
0.0000000e+00 -1.5098140e-02 0.0000000e+00 
0.0000000e+00 -1.4954130e-02 0.0000000e+00 
0.0000000e+00 -1.4808433e-02 0.0000000e+00 
0.0000000e+00 -1.4661069e-02 0.0000000e+00 
0.0000000e+00 -1.4512061e-02 0.0000000e+00 
0.0000000e+00 -1.4361430e-02 0.0000000e+00 
0.0000000e+00 -1.4209196e-02 0.0000000e+00 
0.0000000e+00 -1.4055382e-02 0.0000000e+00 
0.0000000e+00 -1.3900009e-02 0.0000000e+00 
0.0000000e+00 -1.3743097e-02 0.0000000e+00 
0.0000000e+00 -1.3584670e-02 0.0000000e+00 
0.0000000e+00 -1.3424747e-02 0.0000000e+00 
0.0000000e+00 -1.3263349e-02 0.0000000e+00 
0.0000000e+00 -1.3100500e-02 0.0000000e+00 
0.0000000e+00 -1.2936220e-02 0.0000000e+00 
0.0000000e+00 -1.2770530e-02 0.0000000e+00 
0.0000000e+00 -1.2603451e-02 0.0000000e+00 
0.0000000e+00 -1.2435005e-02 0.0000000e+00 
0.0000000e+00 -1.2265214e-02 0.0000000e+00 
0.0000000e+00 -1.2094098e-02 0.0000000e+00 
0.0000000e+00 -1.1921680e-02 0.0000000e+00 
0.0000000e+00 -1.1747980e-02 0.0000000e+00 
0.0000000e+00 -1.1573019e-02 0.0000000e+00 
0.0000000e+00 -1.1396821e-02 0.0000000e+00 
0.0000000e+00 -1.1219404e-02 0.0000000e+00 
0.0000000e+00 -1.1040791e-02 0.0000000e+00 
0.0000000e+00 -1.0861003e-02 0.0000000e+00 
0.0000000e+00 -1.0680062e-02 0.0000000e+00 
0.0000000e+00 -1.0497989e-02 0.0000000e+00 
0.0000000e+00 -1.0314805e-02 0.0000000e+00 
0.0000000e+00 -1.0130532e-02 0.0000000e+00 
0.0000000e+00 -9.9451905e-03 0.0000000e+00 
0.0000000e+00 -9.7588031e-03 0.0000000e+00 
0.0000000e+00 -9.5713893e-03 0.0000000e+00 
0.0000000e+00 -9.3829725e-03 0.0000000e+00 
0.0000000e+00 -9.1935731e-03 0.0000000e+00 
0.0000000e+00 -9.0032117e-03 0.0000000e+00 
0.0000000e+00 -8.8119116e-03 0.0000000e+00 
0.0000000e+00 -8.6196922e-03 0.0000000e+00 
0.0000000e+00 -8.4265759e-03 0.0000000e+00 
0.0000000e+00 -8.2325842e-03 0.0000000e+00 
0.0000000e+00 -8.0377376e-03 0.0000000e+00 
0.0000000e+00 -7.8420583e-03 0.0000000e+00 
0.0000000e+00 -7.6455674e-03 0.0000000e+00 
0.0000000e+00 -7.4482863e-03 0.0000000e+00 
0.0000000e+00 -7.2502359e-03 0.0000000e+00 
0.0000000e+00 -7.0514381e-03 0.0000000e+00 
0.0000000e+00 -6.8519139e-03 0.0000000e+00 
0.0000000e+00 -6.6516846e-03 0.0000000e+00 
0.0000000e+00 -6.4507723e-03 0.0000000e+00 
0.0000000e+00 -6.2491978e-03 0.0000000e+00 
0.0000000e+00 -6.0469820e-03 0.0000000e+00 
0.0000000e+00 -5.8441469e-03 0.0000000e+00 
0.0000000e+00 -5.6407140e-03 0.0000000e+00 
0.0000000e+00 -5.4367045e-03 0.0000000e+00 
0.0000000e+00 -5.2321395e-03 0.0000000e+00 
0.0000000e+00 -5.0270404e-03 0.0000000e+00 
0.0000000e+00 -4.8214286e-03 0.0000000e+00 
0.0000000e+00 -4.6153259e-03 0.0000000e+00 
0.0000000e+00 -4.4087530e-03 0.0000000e+00 
0.0000000e+00 -4.2017312e-03 0.0000000e+00 
0.0000000e+00 -3.9942828e-03 0.0000000e+00 
0.0000000e+00 -3.7864284e-03 0.0000000e+00 
0.0000000e+00 -3.5781893e-03 0.0000000e+00 
0.0000000e+00 -3.3695872e-03 0.0000000e+00 
0.0000000e+00 -3.1606434e-03 0.0000000e+00 
0.0000000e+00 -2.9513792e-03 0.0000000e+00 
0.0000000e+00 -2.7418160e-03 0.0000000e+00 
0.0000000e+00 -2.5319750e-03 0.0000000e+00 
0.0000000e+00 -2.3218777e-03 0.0000000e+00 
0.0000000e+00 -2.1115455e-03 0.0000000e+00 
0.0000000e+00 -1.9009998e-03 0.0000000e+00 
0.0000000e+00 -1.6902618e-03 0.0000000e+00 
0.0000000e+00 -1.4793528e-03 0.0000000e+00 
0.0000000e+00 -1.2682944e-03 0.0000000e+00 
0.0000000e+00 -1.0571078e-03 0.0000000e+00 
0.0000000e+00 -8.4581441e-04 0.0000000e+00 
0.0000000e+00 -6.3443556e-04 0.0000000e+00 
0.0000000e+00 -4.2299263e-04 0.0000000e+00 
0.0000000e+00 -2.1150699e-04 0.0000000e+00 
CELL_DATA 250
FIELD FieldData 0
