# vtk DataFile Version 4.0
vtk output
ASCII
DATASET UNSTRUCTURED_GRID
POINTS 251 float
0.0000000e+00 0.0000000e+00 0.0000000e+00 
2.5000000e+01 0.0000000e+00 0.0000000e+00 
1.0000000e-01 0.0000000e+00 0.0000000e+00 
2.0000000e-01 0.0000000e+00 0.0000000e+00 
3.0000001e-01 0.0000000e+00 0.0000000e+00 
4.0000001e-01 0.0000000e+00 0.0000000e+00 
5.0000000e-01 0.0000000e+00 0.0000000e+00 
6.0000002e-01 0.0000000e+00 0.0000000e+00 
6.9999999e-01 0.0000000e+00 0.0000000e+00 
8.0000001e-01 0.0000000e+00 0.0000000e+00 
8.9999998e-01 0.0000000e+00 0.0000000e+00 
1.0000000e+00 0.0000000e+00 0.0000000e+00 
1.1000000e+00 0.0000000e+00 0.0000000e+00 
1.2000000e+00 0.0000000e+00 0.0000000e+00 
1.3000000e+00 0.0000000e+00 0.0000000e+00 
1.4000000e+00 0.0000000e+00 0.0000000e+00 
1.5000000e+00 0.0000000e+00 0.0000000e+00 
1.6000000e+00 0.0000000e+00 0.0000000e+00 
1.7000000e+00 0.0000000e+00 0.0000000e+00 
1.8000000e+00 0.0000000e+00 0.0000000e+00 
1.9000000e+00 0.0000000e+00 0.0000000e+00 
2.0000000e+00 0.0000000e+00 0.0000000e+00 
2.0999999e+00 0.0000000e+00 0.0000000e+00 
2.2000000e+00 0.0000000e+00 0.0000000e+00 
2.3000000e+00 0.0000000e+00 0.0000000e+00 
2.4000001e+00 0.0000000e+00 0.0000000e+00 
2.5000000e+00 0.0000000e+00 0.0000000e+00 
2.5999999e+00 0.0000000e+00 0.0000000e+00 
2.7000000e+00 0.0000000e+00 0.0000000e+00 
2.8000000e+00 0.0000000e+00 0.0000000e+00 
2.9000001e+00 0.0000000e+00 0.0000000e+00 
3.0000000e+00 0.0000000e+00 0.0000000e+00 
3.0999999e+00 0.0000000e+00 0.0000000e+00 
3.2000000e+00 0.0000000e+00 0.0000000e+00 
3.3000000e+00 0.0000000e+00 0.0000000e+00 
3.4000001e+00 0.0000000e+00 0.0000000e+00 
3.5000000e+00 0.0000000e+00 0.0000000e+00 
3.5999999e+00 0.0000000e+00 0.0000000e+00 
3.7000000e+00 0.0000000e+00 0.0000000e+00 
3.8000000e+00 0.0000000e+00 0.0000000e+00 
3.9000001e+00 0.0000000e+00 0.0000000e+00 
4.0000000e+00 0.0000000e+00 0.0000000e+00 
4.0999999e+00 0.0000000e+00 0.0000000e+00 
4.1999998e+00 0.0000000e+00 0.0000000e+00 
4.3000002e+00 0.0000000e+00 0.0000000e+00 
4.4000001e+00 0.0000000e+00 0.0000000e+00 
4.5000000e+00 0.0000000e+00 0.0000000e+00 
4.5999999e+00 0.0000000e+00 0.0000000e+00 
4.6999998e+00 0.0000000e+00 0.0000000e+00 
4.8000002e+00 0.0000000e+00 0.0000000e+00 
4.9000001e+00 0.0000000e+00 0.0000000e+00 
5.0000000e+00 0.0000000e+00 0.0000000e+00 
5.0999999e+00 0.0000000e+00 0.0000000e+00 
5.1999998e+00 0.0000000e+00 0.0000000e+00 
5.3000002e+00 0.0000000e+00 0.0000000e+00 
5.4000001e+00 0.0000000e+00 0.0000000e+00 
5.5000000e+00 0.0000000e+00 0.0000000e+00 
5.5999999e+00 0.0000000e+00 0.0000000e+00 
5.6999998e+00 0.0000000e+00 0.0000000e+00 
5.8000002e+00 0.0000000e+00 0.0000000e+00 
5.9000001e+00 0.0000000e+00 0.0000000e+00 
6.0000000e+00 0.0000000e+00 0.0000000e+00 
6.0999999e+00 0.0000000e+00 0.0000000e+00 
6.1999998e+00 0.0000000e+00 0.0000000e+00 
6.3000002e+00 0.0000000e+00 0.0000000e+00 
6.4000001e+00 0.0000000e+00 0.0000000e+00 
6.5000000e+00 0.0000000e+00 0.0000000e+00 
6.5999999e+00 0.0000000e+00 0.0000000e+00 
6.6999998e+00 0.0000000e+00 0.0000000e+00 
6.8000002e+00 0.0000000e+00 0.0000000e+00 
6.9000001e+00 0.0000000e+00 0.0000000e+00 
7.0000000e+00 0.0000000e+00 0.0000000e+00 
7.0999999e+00 0.0000000e+00 0.0000000e+00 
7.1999998e+00 0.0000000e+00 0.0000000e+00 
7.3000002e+00 0.0000000e+00 0.0000000e+00 
7.4000001e+00 0.0000000e+00 0.0000000e+00 
7.5000000e+00 0.0000000e+00 0.0000000e+00 
7.5999999e+00 0.0000000e+00 0.0000000e+00 
7.6999998e+00 0.0000000e+00 0.0000000e+00 
7.8000002e+00 0.0000000e+00 0.0000000e+00 
7.9000001e+00 0.0000000e+00 0.0000000e+00 
8.0000000e+00 0.0000000e+00 0.0000000e+00 
8.1000004e+00 0.0000000e+00 0.0000000e+00 
8.1999998e+00 0.0000000e+00 0.0000000e+00 
8.3000002e+00 0.0000000e+00 0.0000000e+00 
8.3999996e+00 0.0000000e+00 0.0000000e+00 
8.5000000e+00 0.0000000e+00 0.0000000e+00 
8.6000004e+00 0.0000000e+00 0.0000000e+00 
8.6999998e+00 0.0000000e+00 0.0000000e+00 
8.8000002e+00 0.0000000e+00 0.0000000e+00 
8.8999996e+00 0.0000000e+00 0.0000000e+00 
9.0000000e+00 0.0000000e+00 0.0000000e+00 
9.1000004e+00 0.0000000e+00 0.0000000e+00 
9.1999998e+00 0.0000000e+00 0.0000000e+00 
9.3000002e+00 0.0000000e+00 0.0000000e+00 
9.3999996e+00 0.0000000e+00 0.0000000e+00 
9.5000000e+00 0.0000000e+00 0.0000000e+00 
9.6000004e+00 0.0000000e+00 0.0000000e+00 
9.6999998e+00 0.0000000e+00 0.0000000e+00 
9.8000002e+00 0.0000000e+00 0.0000000e+00 
9.8999996e+00 0.0000000e+00 0.0000000e+00 
1.0000000e+01 0.0000000e+00 0.0000000e+00 
1.0100000e+01 0.0000000e+00 0.0000000e+00 
1.0200000e+01 0.0000000e+00 0.0000000e+00 
1.0300000e+01 0.0000000e+00 0.0000000e+00 
1.0400000e+01 0.0000000e+00 0.0000000e+00 
1.0500000e+01 0.0000000e+00 0.0000000e+00 
1.0600000e+01 0.0000000e+00 0.0000000e+00 
1.0700000e+01 0.0000000e+00 0.0000000e+00 
1.0800000e+01 0.0000000e+00 0.0000000e+00 
1.0900000e+01 0.0000000e+00 0.0000000e+00 
1.1000000e+01 0.0000000e+00 0.0000000e+00 
1.1100000e+01 0.0000000e+00 0.0000000e+00 
1.1200000e+01 0.0000000e+00 0.0000000e+00 
1.1300000e+01 0.0000000e+00 0.0000000e+00 
1.1400000e+01 0.0000000e+00 0.0000000e+00 
1.1500000e+01 0.0000000e+00 0.0000000e+00 
1.1600000e+01 0.0000000e+00 0.0000000e+00 
1.1700000e+01 0.0000000e+00 0.0000000e+00 
1.1800000e+01 0.0000000e+00 0.0000000e+00 
1.1900000e+01 0.0000000e+00 0.0000000e+00 
1.2000000e+01 0.0000000e+00 0.0000000e+00 
1.2100000e+01 0.0000000e+00 0.0000000e+00 
1.2200000e+01 0.0000000e+00 0.0000000e+00 
1.2300000e+01 0.0000000e+00 0.0000000e+00 
1.2400000e+01 0.0000000e+00 0.0000000e+00 
1.2500000e+01 0.0000000e+00 0.0000000e+00 
1.2600000e+01 0.0000000e+00 0.0000000e+00 
1.2700000e+01 0.0000000e+00 0.0000000e+00 
1.2800000e+01 0.0000000e+00 0.0000000e+00 
1.2900000e+01 0.0000000e+00 0.0000000e+00 
1.3000000e+01 0.0000000e+00 0.0000000e+00 
1.3100000e+01 0.0000000e+00 0.0000000e+00 
1.3200000e+01 0.0000000e+00 0.0000000e+00 
1.3300000e+01 0.0000000e+00 0.0000000e+00 
1.3400000e+01 0.0000000e+00 0.0000000e+00 
1.3500000e+01 0.0000000e+00 0.0000000e+00 
1.3600000e+01 0.0000000e+00 0.0000000e+00 
1.3700000e+01 0.0000000e+00 0.0000000e+00 
1.3800000e+01 0.0000000e+00 0.0000000e+00 
1.3900000e+01 0.0000000e+00 0.0000000e+00 
1.4000000e+01 0.0000000e+00 0.0000000e+00 
1.4100000e+01 0.0000000e+00 0.0000000e+00 
1.4200000e+01 0.0000000e+00 0.0000000e+00 
1.4300000e+01 0.0000000e+00 0.0000000e+00 
1.4400000e+01 0.0000000e+00 0.0000000e+00 
1.4500000e+01 0.0000000e+00 0.0000000e+00 
1.4600000e+01 0.0000000e+00 0.0000000e+00 
1.4700000e+01 0.0000000e+00 0.0000000e+00 
1.4800000e+01 0.0000000e+00 0.0000000e+00 
1.4900000e+01 0.0000000e+00 0.0000000e+00 
1.5000000e+01 0.0000000e+00 0.0000000e+00 
1.5100000e+01 0.0000000e+00 0.0000000e+00 
1.5200000e+01 0.0000000e+00 0.0000000e+00 
1.5300000e+01 0.0000000e+00 0.0000000e+00 
1.5400000e+01 0.0000000e+00 0.0000000e+00 
1.5500000e+01 0.0000000e+00 0.0000000e+00 
1.5600000e+01 0.0000000e+00 0.0000000e+00 
1.5700000e+01 0.0000000e+00 0.0000000e+00 
1.5800000e+01 0.0000000e+00 0.0000000e+00 
1.5900000e+01 0.0000000e+00 0.0000000e+00 
1.6000000e+01 0.0000000e+00 0.0000000e+00 
1.6100000e+01 0.0000000e+00 0.0000000e+00 
1.6200001e+01 0.0000000e+00 0.0000000e+00 
1.6299999e+01 0.0000000e+00 0.0000000e+00 
1.6400000e+01 0.0000000e+00 0.0000000e+00 
1.6500000e+01 0.0000000e+00 0.0000000e+00 
1.6600000e+01 0.0000000e+00 0.0000000e+00 
1.6700001e+01 0.0000000e+00 0.0000000e+00 
1.6799999e+01 0.0000000e+00 0.0000000e+00 
1.6900000e+01 0.0000000e+00 0.0000000e+00 
1.7000000e+01 0.0000000e+00 0.0000000e+00 
1.7100000e+01 0.0000000e+00 0.0000000e+00 
1.7200001e+01 0.0000000e+00 0.0000000e+00 
1.7299999e+01 0.0000000e+00 0.0000000e+00 
1.7400000e+01 0.0000000e+00 0.0000000e+00 
1.7500000e+01 0.0000000e+00 0.0000000e+00 
1.7600000e+01 0.0000000e+00 0.0000000e+00 
1.7700001e+01 0.0000000e+00 0.0000000e+00 
1.7799999e+01 0.0000000e+00 0.0000000e+00 
1.7900000e+01 0.0000000e+00 0.0000000e+00 
1.8000000e+01 0.0000000e+00 0.0000000e+00 
1.8100000e+01 0.0000000e+00 0.0000000e+00 
1.8200001e+01 0.0000000e+00 0.0000000e+00 
1.8299999e+01 0.0000000e+00 0.0000000e+00 
1.8400000e+01 0.0000000e+00 0.0000000e+00 
1.8500000e+01 0.0000000e+00 0.0000000e+00 
1.8600000e+01 0.0000000e+00 0.0000000e+00 
1.8700001e+01 0.0000000e+00 0.0000000e+00 
1.8799999e+01 0.0000000e+00 0.0000000e+00 
1.8900000e+01 0.0000000e+00 0.0000000e+00 
1.9000000e+01 0.0000000e+00 0.0000000e+00 
1.9100000e+01 0.0000000e+00 0.0000000e+00 
1.9200001e+01 0.0000000e+00 0.0000000e+00 
1.9299999e+01 0.0000000e+00 0.0000000e+00 
1.9400000e+01 0.0000000e+00 0.0000000e+00 
1.9500000e+01 0.0000000e+00 0.0000000e+00 
1.9600000e+01 0.0000000e+00 0.0000000e+00 
1.9700001e+01 0.0000000e+00 0.0000000e+00 
1.9799999e+01 0.0000000e+00 0.0000000e+00 
1.9900000e+01 0.0000000e+00 0.0000000e+00 
2.0000000e+01 0.0000000e+00 0.0000000e+00 
2.0100000e+01 0.0000000e+00 0.0000000e+00 
2.0200001e+01 0.0000000e+00 0.0000000e+00 
2.0299999e+01 0.0000000e+00 0.0000000e+00 
2.0400000e+01 0.0000000e+00 0.0000000e+00 
2.0500000e+01 0.0000000e+00 0.0000000e+00 
2.0600000e+01 0.0000000e+00 0.0000000e+00 
2.0700001e+01 0.0000000e+00 0.0000000e+00 
2.0799999e+01 0.0000000e+00 0.0000000e+00 
2.0900000e+01 0.0000000e+00 0.0000000e+00 
2.1000000e+01 0.0000000e+00 0.0000000e+00 
2.1100000e+01 0.0000000e+00 0.0000000e+00 
2.1200001e+01 0.0000000e+00 0.0000000e+00 
2.1299999e+01 0.0000000e+00 0.0000000e+00 
2.1400000e+01 0.0000000e+00 0.0000000e+00 
2.1500000e+01 0.0000000e+00 0.0000000e+00 
2.1600000e+01 0.0000000e+00 0.0000000e+00 
2.1700001e+01 0.0000000e+00 0.0000000e+00 
2.1799999e+01 0.0000000e+00 0.0000000e+00 
2.1900000e+01 0.0000000e+00 0.0000000e+00 
2.2000000e+01 0.0000000e+00 0.0000000e+00 
2.2100000e+01 0.0000000e+00 0.0000000e+00 
2.2200001e+01 0.0000000e+00 0.0000000e+00 
2.2299999e+01 0.0000000e+00 0.0000000e+00 
2.2400000e+01 0.0000000e+00 0.0000000e+00 
2.2500000e+01 0.0000000e+00 0.0000000e+00 
2.2600000e+01 0.0000000e+00 0.0000000e+00 
2.2700001e+01 0.0000000e+00 0.0000000e+00 
2.2799999e+01 0.0000000e+00 0.0000000e+00 
2.2900000e+01 0.0000000e+00 0.0000000e+00 
2.3000000e+01 0.0000000e+00 0.0000000e+00 
2.3100000e+01 0.0000000e+00 0.0000000e+00 
2.3200001e+01 0.0000000e+00 0.0000000e+00 
2.3299999e+01 0.0000000e+00 0.0000000e+00 
2.3400000e+01 0.0000000e+00 0.0000000e+00 
2.3500000e+01 0.0000000e+00 0.0000000e+00 
2.3600000e+01 0.0000000e+00 0.0000000e+00 
2.3700001e+01 0.0000000e+00 0.0000000e+00 
2.3799999e+01 0.0000000e+00 0.0000000e+00 
2.3900000e+01 0.0000000e+00 0.0000000e+00 
2.4000000e+01 0.0000000e+00 0.0000000e+00 
2.4100000e+01 0.0000000e+00 0.0000000e+00 
2.4200001e+01 0.0000000e+00 0.0000000e+00 
2.4299999e+01 0.0000000e+00 0.0000000e+00 
2.4400000e+01 0.0000000e+00 0.0000000e+00 
2.4500000e+01 0.0000000e+00 0.0000000e+00 
2.4600000e+01 0.0000000e+00 0.0000000e+00 
2.4700001e+01 0.0000000e+00 0.0000000e+00 
2.4799999e+01 0.0000000e+00 0.0000000e+00 
2.4900000e+01 0.0000000e+00 0.0000000e+00 

CELLS 250 750
2 0 2
2 2 3
2 3 4
2 4 5
2 5 6
2 6 7
2 7 8
2 8 9
2 9 10
2 10 11
2 11 12
2 12 13
2 13 14
2 14 15
2 15 16
2 16 17
2 17 18
2 18 19
2 19 20
2 20 21
2 21 22
2 22 23
2 23 24
2 24 25
2 25 26
2 26 27
2 27 28
2 28 29
2 29 30
2 30 31
2 31 32
2 32 33
2 33 34
2 34 35
2 35 36
2 36 37
2 37 38
2 38 39
2 39 40
2 40 41
2 41 42
2 42 43
2 43 44
2 44 45
2 45 46
2 46 47
2 47 48
2 48 49
2 49 50
2 50 51
2 51 52
2 52 53
2 53 54
2 54 55
2 55 56
2 56 57
2 57 58
2 58 59
2 59 60
2 60 61
2 61 62
2 62 63
2 63 64
2 64 65
2 65 66
2 66 67
2 67 68
2 68 69
2 69 70
2 70 71
2 71 72
2 72 73
2 73 74
2 74 75
2 75 76
2 76 77
2 77 78
2 78 79
2 79 80
2 80 81
2 81 82
2 82 83
2 83 84
2 84 85
2 85 86
2 86 87
2 87 88
2 88 89
2 89 90
2 90 91
2 91 92
2 92 93
2 93 94
2 94 95
2 95 96
2 96 97
2 97 98
2 98 99
2 99 100
2 100 101
2 101 102
2 102 103
2 103 104
2 104 105
2 105 106
2 106 107
2 107 108
2 108 109
2 109 110
2 110 111
2 111 112
2 112 113
2 113 114
2 114 115
2 115 116
2 116 117
2 117 118
2 118 119
2 119 120
2 120 121
2 121 122
2 122 123
2 123 124
2 124 125
2 125 126
2 126 127
2 127 128
2 128 129
2 129 130
2 130 131
2 131 132
2 132 133
2 133 134
2 134 135
2 135 136
2 136 137
2 137 138
2 138 139
2 139 140
2 140 141
2 141 142
2 142 143
2 143 144
2 144 145
2 145 146
2 146 147
2 147 148
2 148 149
2 149 150
2 150 151
2 151 152
2 152 153
2 153 154
2 154 155
2 155 156
2 156 157
2 157 158
2 158 159
2 159 160
2 160 161
2 161 162
2 162 163
2 163 164
2 164 165
2 165 166
2 166 167
2 167 168
2 168 169
2 169 170
2 170 171
2 171 172
2 172 173
2 173 174
2 174 175
2 175 176
2 176 177
2 177 178
2 178 179
2 179 180
2 180 181
2 181 182
2 182 183
2 183 184
2 184 185
2 185 186
2 186 187
2 187 188
2 188 189
2 189 190
2 190 191
2 191 192
2 192 193
2 193 194
2 194 195
2 195 196
2 196 197
2 197 198
2 198 199
2 199 200
2 200 201
2 201 202
2 202 203
2 203 204
2 204 205
2 205 206
2 206 207
2 207 208
2 208 209
2 209 210
2 210 211
2 211 212
2 212 213
2 213 214
2 214 215
2 215 216
2 216 217
2 217 218
2 218 219
2 219 220
2 220 221
2 221 222
2 222 223
2 223 224
2 224 225
2 225 226
2 226 227
2 227 228
2 228 229
2 229 230
2 230 231
2 231 232
2 232 233
2 233 234
2 234 235
2 235 236
2 236 237
2 237 238
2 238 239
2 239 240
2 240 241
2 241 242
2 242 243
2 243 244
2 244 245
2 245 246
2 246 247
2 247 248
2 248 249
2 249 250
2 250 1

CELL_TYPES 250
3
3
3
3
3
3
3
3
3
3
3
3
3
3
3
3
3
3
3
3
3
3
3
3
3
3
3
3
3
3
3
3
3
3
3
3
3
3
3
3
3
3
3
3
3
3
3
3
3
3
3
3
3
3
3
3
3
3
3
3
3
3
3
3
3
3
3
3
3
3
3
3
3
3
3
3
3
3
3
3
3
3
3
3
3
3
3
3
3
3
3
3
3
3
3
3
3
3
3
3
3
3
3
3
3
3
3
3
3
3
3
3
3
3
3
3
3
3
3
3
3
3
3
3
3
3
3
3
3
3
3
3
3
3
3
3
3
3
3
3
3
3
3
3
3
3
3
3
3
3
3
3
3
3
3
3
3
3
3
3
3
3
3
3
3
3
3
3
3
3
3
3
3
3
3
3
3
3
3
3
3
3
3
3
3
3
3
3
3
3
3
3
3
3
3
3
3
3
3
3
3
3
3
3
3
3
3
3
3
3
3
3
3
3
3
3
3
3
3
3
3
3
3
3
3
3
3
3
3
3
3
3
3
3
3
3
3
3
3
3
3
3
3
3
3
3
3
3
3
3
POINT_DATA 251
FIELD FieldData 1
DISPLACEMENT 3 251  float
0.0000000e+00 0.0000000e+00 0.0000000e+00 
0.0000000e+00 0.0000000e+00 0.0000000e+00 
0.0000000e+00 -3.8335309e-04 0.0000000e+00 
0.0000000e+00 -7.6664746e-04 0.0000000e+00 
0.0000000e+00 -1.1498244e-03 0.0000000e+00 
0.0000000e+00 -1.5328249e-03 0.0000000e+00 
0.0000000e+00 -1.9155907e-03 0.0000000e+00 
0.0000000e+00 -2.2980627e-03 0.0000000e+00 
0.0000000e+00 -2.6801822e-03 0.0000000e+00 
0.0000000e+00 -3.0618906e-03 0.0000000e+00 
0.0000000e+00 -3.4431291e-03 0.0000000e+00 
0.0000000e+00 -3.8238389e-03 0.0000000e+00 
0.0000000e+00 -4.2039612e-03 0.0000000e+00 
0.0000000e+00 -4.5834375e-03 0.0000000e+00 
0.0000000e+00 -4.9622091e-03 0.0000000e+00 
0.0000000e+00 -5.3402167e-03 0.0000000e+00 
0.0000000e+00 -5.7174023e-03 0.0000000e+00 
0.0000000e+00 -6.0937065e-03 0.0000000e+00 
0.0000000e+00 -6.4690714e-03 0.0000000e+00 
0.0000000e+00 -6.8434370e-03 0.0000000e+00 
0.0000000e+00 -7.2167460e-03 0.0000000e+00 
0.0000000e+00 -7.5889383e-03 0.0000000e+00 
0.0000000e+00 -7.9599563e-03 0.0000000e+00 
0.0000000e+00 -8.3297407e-03 0.0000000e+00 
0.0000000e+00 -8.6982325e-03 0.0000000e+00 
0.0000000e+00 -9.0653738e-03 0.0000000e+00 
0.0000000e+00 -9.4311051e-03 0.0000000e+00 
0.0000000e+00 -9.7953677e-03 0.0000000e+00 
0.0000000e+00 -1.0158103e-02 0.0000000e+00 
0.0000000e+00 -1.0519252e-02 0.0000000e+00 
0.0000000e+00 -1.0878758e-02 0.0000000e+00 
0.0000000e+00 -1.1236559e-02 0.0000000e+00 
0.0000000e+00 -1.1592598e-02 0.0000000e+00 
0.0000000e+00 -1.1946816e-02 0.0000000e+00 
0.0000000e+00 -1.2299155e-02 0.0000000e+00 
0.0000000e+00 -1.2649556e-02 0.0000000e+00 
0.0000000e+00 -1.2997959e-02 0.0000000e+00 
0.0000000e+00 -1.3344306e-02 0.0000000e+00 
0.0000000e+00 -1.3688538e-02 0.0000000e+00 
0.0000000e+00 -1.4030597e-02 0.0000000e+00 
0.0000000e+00 -1.4370425e-02 0.0000000e+00 
0.0000000e+00 -1.4707961e-02 0.0000000e+00 
0.0000000e+00 -1.5043148e-02 0.0000000e+00 
0.0000000e+00 -1.5375926e-02 0.0000000e+00 
0.0000000e+00 -1.5706237e-02 0.0000000e+00 
0.0000000e+00 -1.6034022e-02 0.0000000e+00 
0.0000000e+00 -1.6359223e-02 0.0000000e+00 
0.0000000e+00 -1.6681781e-02 0.0000000e+00 
0.0000000e+00 -1.7001636e-02 0.0000000e+00 
0.0000000e+00 -1.7318731e-02 0.0000000e+00 
0.0000000e+00 -1.7633008e-02 0.0000000e+00 
0.0000000e+00 -1.7944405e-02 0.0000000e+00 
0.0000000e+00 -1.8252864e-02 0.0000000e+00 
0.0000000e+00 -1.8558329e-02 0.0000000e+00 
0.0000000e+00 -1.8860739e-02 0.0000000e+00 
0.0000000e+00 -1.9160036e-02 0.0000000e+00 
0.0000000e+00 -1.9456161e-02 0.0000000e+00 
0.0000000e+00 -1.9749055e-02 0.0000000e+00 
0.0000000e+00 -2.0038661e-02 0.0000000e+00 
0.0000000e+00 -2.0324918e-02 0.0000000e+00 
0.0000000e+00 -2.0607768e-02 0.0000000e+00 
0.0000000e+00 -2.0887151e-02 0.0000000e+00 
0.0000000e+00 -2.1163011e-02 0.0000000e+00 
0.0000000e+00 -2.1435287e-02 0.0000000e+00 
0.0000000e+00 -2.1703923e-02 0.0000000e+00 
0.0000000e+00 -2.1968856e-02 0.0000000e+00 
0.0000000e+00 -2.2230031e-02 0.0000000e+00 
0.0000000e+00 -2.2487389e-02 0.0000000e+00 
0.0000000e+00 -2.2740869e-02 0.0000000e+00 
0.0000000e+00 -2.2990413e-02 0.0000000e+00 
0.0000000e+00 -2.3235964e-02 0.0000000e+00 
0.0000000e+00 -2.3477461e-02 0.0000000e+00 
0.0000000e+00 -2.3714846e-02 0.0000000e+00 
0.0000000e+00 -2.3948060e-02 0.0000000e+00 
0.0000000e+00 -2.4177046e-02 0.0000000e+00 
0.0000000e+00 -2.4401745e-02 0.0000000e+00 
0.0000000e+00 -2.4622096e-02 0.0000000e+00 
0.0000000e+00 -2.4838042e-02 0.0000000e+00 
0.0000000e+00 -2.5049523e-02 0.0000000e+00 
0.0000000e+00 -2.5256481e-02 0.0000000e+00 
0.0000000e+00 -2.5458857e-02 0.0000000e+00 
0.0000000e+00 -2.5656594e-02 0.0000000e+00 
0.0000000e+00 -2.5849631e-02 0.0000000e+00 
0.0000000e+00 -2.6037909e-02 0.0000000e+00 
0.0000000e+00 -2.6221372e-02 0.0000000e+00 
0.0000000e+00 -2.6399959e-02 0.0000000e+00 
0.0000000e+00 -2.6573613e-02 0.0000000e+00 
0.0000000e+00 -2.6742272e-02 0.0000000e+00 
0.0000000e+00 -2.6905881e-02 0.0000000e+00 
0.0000000e+00 -2.7064379e-02 0.0000000e+00 
0.0000000e+00 -2.7217709e-02 0.0000000e+00 
0.0000000e+00 -2.7365809e-02 0.0000000e+00 
0.0000000e+00 -2.7508626e-02 0.0000000e+00 
0.0000000e+00 -2.7646095e-02 0.0000000e+00 
0.0000000e+00 -2.7778160e-02 0.0000000e+00 
0.0000000e+00 -2.7904762e-02 0.0000000e+00 
0.0000000e+00 -2.8025843e-02 0.0000000e+00 
0.0000000e+00 -2.8141346e-02 0.0000000e+00 
0.0000000e+00 -2.8251207e-02 0.0000000e+00 
0.0000000e+00 -2.8355379e-02 0.0000000e+00 
0.0000000e+00 -2.8453870e-02 0.0000000e+00 
0.0000000e+00 -2.8546715e-02 0.0000000e+00 
0.0000000e+00 -2.8633954e-02 0.0000000e+00 
0.0000000e+00 -2.8715624e-02 0.0000000e+00 
0.0000000e+00 -2.8791761e-02 0.0000000e+00 
0.0000000e+00 -2.8862402e-02 0.0000000e+00 
0.0000000e+00 -2.8927587e-02 0.0000000e+00 
0.0000000e+00 -2.8987352e-02 0.0000000e+00 
0.0000000e+00 -2.9041735e-02 0.0000000e+00 
0.0000000e+00 -2.9090771e-02 0.0000000e+00 
0.0000000e+00 -2.9134501e-02 0.0000000e+00 
0.0000000e+00 -2.9172959e-02 0.0000000e+00 
0.0000000e+00 -2.9206185e-02 0.0000000e+00 
0.0000000e+00 -2.9234214e-02 0.0000000e+00 
0.0000000e+00 -2.9257085e-02 0.0000000e+00 
0.0000000e+00 -2.9274834e-02 0.0000000e+00 
0.0000000e+00 -2.9287502e-02 0.0000000e+00 
0.0000000e+00 -2.9295122e-02 0.0000000e+00 
0.0000000e+00 -2.9297734e-02 0.0000000e+00 
0.0000000e+00 -2.9295374e-02 0.0000000e+00 
0.0000000e+00 -2.9288080e-02 0.0000000e+00 
0.0000000e+00 -2.9275889e-02 0.0000000e+00 
0.0000000e+00 -2.9258838e-02 0.0000000e+00 
0.0000000e+00 -2.9236965e-02 0.0000000e+00 
0.0000000e+00 -2.9210309e-02 0.0000000e+00 
0.0000000e+00 -2.9178904e-02 0.0000000e+00 
0.0000000e+00 -2.9142790e-02 0.0000000e+00 
0.0000000e+00 -2.9102003e-02 0.0000000e+00 
0.0000000e+00 -2.9056583e-02 0.0000000e+00 
0.0000000e+00 -2.9006563e-02 0.0000000e+00 
0.0000000e+00 -2.8951984e-02 0.0000000e+00 
0.0000000e+00 -2.8892880e-02 0.0000000e+00 
0.0000000e+00 -2.8829293e-02 0.0000000e+00 
0.0000000e+00 -2.8761256e-02 0.0000000e+00 
0.0000000e+00 -2.8688809e-02 0.0000000e+00 
0.0000000e+00 -2.8611990e-02 0.0000000e+00 
0.0000000e+00 -2.8530832e-02 0.0000000e+00 
0.0000000e+00 -2.8445378e-02 0.0000000e+00 
0.0000000e+00 -2.8355660e-02 0.0000000e+00 
0.0000000e+00 -2.8261721e-02 0.0000000e+00 
0.0000000e+00 -2.8163593e-02 0.0000000e+00 
0.0000000e+00 -2.8061317e-02 0.0000000e+00 
0.0000000e+00 -2.7954929e-02 0.0000000e+00 
0.0000000e+00 -2.7844468e-02 0.0000000e+00 
0.0000000e+00 -2.7729968e-02 0.0000000e+00 
0.0000000e+00 -2.7611470e-02 0.0000000e+00 
0.0000000e+00 -2.7489008e-02 0.0000000e+00 
0.0000000e+00 -2.7362622e-02 0.0000000e+00 
0.0000000e+00 -2.7232349e-02 0.0000000e+00 
0.0000000e+00 -2.7098225e-02 0.0000000e+00 
0.0000000e+00 -2.6960289e-02 0.0000000e+00 
0.0000000e+00 -2.6818577e-02 0.0000000e+00 
0.0000000e+00 -2.6673127e-02 0.0000000e+00 
0.0000000e+00 -2.6523978e-02 0.0000000e+00 
0.0000000e+00 -2.6371164e-02 0.0000000e+00 
0.0000000e+00 -2.6214724e-02 0.0000000e+00 
0.0000000e+00 -2.6054697e-02 0.0000000e+00 
0.0000000e+00 -2.5891118e-02 0.0000000e+00 
0.0000000e+00 -2.5724025e-02 0.0000000e+00 
0.0000000e+00 -2.5553457e-02 0.0000000e+00 
0.0000000e+00 -2.5379449e-02 0.0000000e+00 
0.0000000e+00 -2.5202041e-02 0.0000000e+00 
0.0000000e+00 -2.5021268e-02 0.0000000e+00 
0.0000000e+00 -2.4837168e-02 0.0000000e+00 
0.0000000e+00 -2.4649778e-02 0.0000000e+00 
0.0000000e+00 -2.4459137e-02 0.0000000e+00 
0.0000000e+00 -2.4265280e-02 0.0000000e+00 
0.0000000e+00 -2.4068246e-02 0.0000000e+00 
0.0000000e+00 -2.3868073e-02 0.0000000e+00 
0.0000000e+00 -2.3664797e-02 0.0000000e+00 
0.0000000e+00 -2.3458455e-02 0.0000000e+00 
0.0000000e+00 -2.3249086e-02 0.0000000e+00 
0.0000000e+00 -2.3036728e-02 0.0000000e+00 
0.0000000e+00 -2.2821415e-02 0.0000000e+00 
0.0000000e+00 -2.2603188e-02 0.0000000e+00 
0.0000000e+00 -2.2382081e-02 0.0000000e+00 
0.0000000e+00 -2.2158135e-02 0.0000000e+00 
0.0000000e+00 -2.1931384e-02 0.0000000e+00 
0.0000000e+00 -2.1701867e-02 0.0000000e+00 
0.0000000e+00 -2.1469623e-02 0.0000000e+00 
0.0000000e+00 -2.1234686e-02 0.0000000e+00 
0.0000000e+00 -2.0997096e-02 0.0000000e+00 
0.0000000e+00 -2.0756889e-02 0.0000000e+00 
0.0000000e+00 -2.0514103e-02 0.0000000e+00 
0.0000000e+00 -2.0268774e-02 0.0000000e+00 
0.0000000e+00 -2.0020941e-02 0.0000000e+00 
0.0000000e+00 -1.9770641e-02 0.0000000e+00 
0.0000000e+00 -1.9517912e-02 0.0000000e+00 
0.0000000e+00 -1.9262791e-02 0.0000000e+00 
0.0000000e+00 -1.9005315e-02 0.0000000e+00 
0.0000000e+00 -1.8745521e-02 0.0000000e+00 
0.0000000e+00 -1.8483447e-02 0.0000000e+00 
0.0000000e+00 -1.8219130e-02 0.0000000e+00 
0.0000000e+00 -1.7952606e-02 0.0000000e+00 
0.0000000e+00 -1.7683916e-02 0.0000000e+00 
0.0000000e+00 -1.7413095e-02 0.0000000e+00 
0.0000000e+00 -1.7140182e-02 0.0000000e+00 
0.0000000e+00 -1.6865211e-02 0.0000000e+00 
0.0000000e+00 -1.6588222e-02 0.0000000e+00 
0.0000000e+00 -1.6309252e-02 0.0000000e+00 
0.0000000e+00 -1.6028339e-02 0.0000000e+00 
0.0000000e+00 -1.5745519e-02 0.0000000e+00 
0.0000000e+00 -1.5460830e-02 0.0000000e+00 
0.0000000e+00 -1.5174310e-02 0.0000000e+00 
0.0000000e+00 -1.4885995e-02 0.0000000e+00 
0.0000000e+00 -1.4595923e-02 0.0000000e+00 
0.0000000e+00 -1.4304132e-02 0.0000000e+00 
0.0000000e+00 -1.4010659e-02 0.0000000e+00 
0.0000000e+00 -1.3715541e-02 0.0000000e+00 
0.0000000e+00 -1.3418816e-02 0.0000000e+00 
0.0000000e+00 -1.3120521e-02 0.0000000e+00 
0.0000000e+00 -1.2820694e-02 0.0000000e+00 
0.0000000e+00 -1.2519371e-02 0.0000000e+00 
0.0000000e+00 -1.2216589e-02 0.0000000e+00 
0.0000000e+00 -1.1912389e-02 0.0000000e+00 
0.0000000e+00 -1.1606804e-02 0.0000000e+00 
0.0000000e+00 -1.1299875e-02 0.0000000e+00 
0.0000000e+00 -1.0991637e-02 0.0000000e+00 
0.0000000e+00 -1.0682127e-02 0.0000000e+00 
0.0000000e+00 -1.0371385e-02 0.0000000e+00 
0.0000000e+00 -1.0059446e-02 0.0000000e+00 
0.0000000e+00 -9.7463485e-03 0.0000000e+00 
0.0000000e+00 -9.4321296e-03 0.0000000e+00 
0.0000000e+00 -9.1168275e-03 0.0000000e+00 
0.0000000e+00 -8.8004777e-03 0.0000000e+00 
0.0000000e+00 -8.4831193e-03 0.0000000e+00 
0.0000000e+00 -8.1647886e-03 0.0000000e+00 
0.0000000e+00 -7.8455228e-03 0.0000000e+00 
0.0000000e+00 -7.5253611e-03 0.0000000e+00 
0.0000000e+00 -7.2043389e-03 0.0000000e+00 
0.0000000e+00 -6.8824948e-03 0.0000000e+00 
0.0000000e+00 -6.5598655e-03 0.0000000e+00 
0.0000000e+00 -6.2364885e-03 0.0000000e+00 
0.0000000e+00 -5.9124012e-03 0.0000000e+00 
0.0000000e+00 -5.5876416e-03 0.0000000e+00 
0.0000000e+00 -5.2622459e-03 0.0000000e+00 
0.0000000e+00 -4.9362527e-03 0.0000000e+00 
0.0000000e+00 -4.6096984e-03 0.0000000e+00 
0.0000000e+00 -4.2826212e-03 0.0000000e+00 
0.0000000e+00 -3.9550578e-03 0.0000000e+00 
0.0000000e+00 -3.6270458e-03 0.0000000e+00 
0.0000000e+00 -3.2986226e-03 0.0000000e+00 
0.0000000e+00 -2.9698256e-03 0.0000000e+00 
0.0000000e+00 -2.6406923e-03 0.0000000e+00 
0.0000000e+00 -2.3112600e-03 0.0000000e+00 
0.0000000e+00 -1.9815657e-03 0.0000000e+00 
0.0000000e+00 -1.6516475e-03 0.0000000e+00 
0.0000000e+00 -1.3215423e-03 0.0000000e+00 
0.0000000e+00 -9.9128752e-04 0.0000000e+00 
0.0000000e+00 -6.6092063e-04 0.0000000e+00 
0.0000000e+00 -3.3047903e-04 0.0000000e+00 
CELL_DATA 250
FIELD FieldData 0
