# vtk DataFile Version 4.0
vtk output
ASCII
DATASET UNSTRUCTURED_GRID
POINTS 251 float
0.0000000e+00 0.0000000e+00 0.0000000e+00 
2.5000000e+01 0.0000000e+00 0.0000000e+00 
1.0000000e-01 0.0000000e+00 0.0000000e+00 
2.0000000e-01 0.0000000e+00 0.0000000e+00 
3.0000001e-01 0.0000000e+00 0.0000000e+00 
4.0000001e-01 0.0000000e+00 0.0000000e+00 
5.0000000e-01 0.0000000e+00 0.0000000e+00 
6.0000002e-01 0.0000000e+00 0.0000000e+00 
6.9999999e-01 0.0000000e+00 0.0000000e+00 
8.0000001e-01 0.0000000e+00 0.0000000e+00 
8.9999998e-01 0.0000000e+00 0.0000000e+00 
1.0000000e+00 0.0000000e+00 0.0000000e+00 
1.1000000e+00 0.0000000e+00 0.0000000e+00 
1.2000000e+00 0.0000000e+00 0.0000000e+00 
1.3000000e+00 0.0000000e+00 0.0000000e+00 
1.4000000e+00 0.0000000e+00 0.0000000e+00 
1.5000000e+00 0.0000000e+00 0.0000000e+00 
1.6000000e+00 0.0000000e+00 0.0000000e+00 
1.7000000e+00 0.0000000e+00 0.0000000e+00 
1.8000000e+00 0.0000000e+00 0.0000000e+00 
1.9000000e+00 0.0000000e+00 0.0000000e+00 
2.0000000e+00 0.0000000e+00 0.0000000e+00 
2.0999999e+00 0.0000000e+00 0.0000000e+00 
2.2000000e+00 0.0000000e+00 0.0000000e+00 
2.3000000e+00 0.0000000e+00 0.0000000e+00 
2.4000001e+00 0.0000000e+00 0.0000000e+00 
2.5000000e+00 0.0000000e+00 0.0000000e+00 
2.5999999e+00 0.0000000e+00 0.0000000e+00 
2.7000000e+00 0.0000000e+00 0.0000000e+00 
2.8000000e+00 0.0000000e+00 0.0000000e+00 
2.9000001e+00 0.0000000e+00 0.0000000e+00 
3.0000000e+00 0.0000000e+00 0.0000000e+00 
3.0999999e+00 0.0000000e+00 0.0000000e+00 
3.2000000e+00 0.0000000e+00 0.0000000e+00 
3.3000000e+00 0.0000000e+00 0.0000000e+00 
3.4000001e+00 0.0000000e+00 0.0000000e+00 
3.5000000e+00 0.0000000e+00 0.0000000e+00 
3.5999999e+00 0.0000000e+00 0.0000000e+00 
3.7000000e+00 0.0000000e+00 0.0000000e+00 
3.8000000e+00 0.0000000e+00 0.0000000e+00 
3.9000001e+00 0.0000000e+00 0.0000000e+00 
4.0000000e+00 0.0000000e+00 0.0000000e+00 
4.0999999e+00 0.0000000e+00 0.0000000e+00 
4.1999998e+00 0.0000000e+00 0.0000000e+00 
4.3000002e+00 0.0000000e+00 0.0000000e+00 
4.4000001e+00 0.0000000e+00 0.0000000e+00 
4.5000000e+00 0.0000000e+00 0.0000000e+00 
4.5999999e+00 0.0000000e+00 0.0000000e+00 
4.6999998e+00 0.0000000e+00 0.0000000e+00 
4.8000002e+00 0.0000000e+00 0.0000000e+00 
4.9000001e+00 0.0000000e+00 0.0000000e+00 
5.0000000e+00 0.0000000e+00 0.0000000e+00 
5.0999999e+00 0.0000000e+00 0.0000000e+00 
5.1999998e+00 0.0000000e+00 0.0000000e+00 
5.3000002e+00 0.0000000e+00 0.0000000e+00 
5.4000001e+00 0.0000000e+00 0.0000000e+00 
5.5000000e+00 0.0000000e+00 0.0000000e+00 
5.5999999e+00 0.0000000e+00 0.0000000e+00 
5.6999998e+00 0.0000000e+00 0.0000000e+00 
5.8000002e+00 0.0000000e+00 0.0000000e+00 
5.9000001e+00 0.0000000e+00 0.0000000e+00 
6.0000000e+00 0.0000000e+00 0.0000000e+00 
6.0999999e+00 0.0000000e+00 0.0000000e+00 
6.1999998e+00 0.0000000e+00 0.0000000e+00 
6.3000002e+00 0.0000000e+00 0.0000000e+00 
6.4000001e+00 0.0000000e+00 0.0000000e+00 
6.5000000e+00 0.0000000e+00 0.0000000e+00 
6.5999999e+00 0.0000000e+00 0.0000000e+00 
6.6999998e+00 0.0000000e+00 0.0000000e+00 
6.8000002e+00 0.0000000e+00 0.0000000e+00 
6.9000001e+00 0.0000000e+00 0.0000000e+00 
7.0000000e+00 0.0000000e+00 0.0000000e+00 
7.0999999e+00 0.0000000e+00 0.0000000e+00 
7.1999998e+00 0.0000000e+00 0.0000000e+00 
7.3000002e+00 0.0000000e+00 0.0000000e+00 
7.4000001e+00 0.0000000e+00 0.0000000e+00 
7.5000000e+00 0.0000000e+00 0.0000000e+00 
7.5999999e+00 0.0000000e+00 0.0000000e+00 
7.6999998e+00 0.0000000e+00 0.0000000e+00 
7.8000002e+00 0.0000000e+00 0.0000000e+00 
7.9000001e+00 0.0000000e+00 0.0000000e+00 
8.0000000e+00 0.0000000e+00 0.0000000e+00 
8.1000004e+00 0.0000000e+00 0.0000000e+00 
8.1999998e+00 0.0000000e+00 0.0000000e+00 
8.3000002e+00 0.0000000e+00 0.0000000e+00 
8.3999996e+00 0.0000000e+00 0.0000000e+00 
8.5000000e+00 0.0000000e+00 0.0000000e+00 
8.6000004e+00 0.0000000e+00 0.0000000e+00 
8.6999998e+00 0.0000000e+00 0.0000000e+00 
8.8000002e+00 0.0000000e+00 0.0000000e+00 
8.8999996e+00 0.0000000e+00 0.0000000e+00 
9.0000000e+00 0.0000000e+00 0.0000000e+00 
9.1000004e+00 0.0000000e+00 0.0000000e+00 
9.1999998e+00 0.0000000e+00 0.0000000e+00 
9.3000002e+00 0.0000000e+00 0.0000000e+00 
9.3999996e+00 0.0000000e+00 0.0000000e+00 
9.5000000e+00 0.0000000e+00 0.0000000e+00 
9.6000004e+00 0.0000000e+00 0.0000000e+00 
9.6999998e+00 0.0000000e+00 0.0000000e+00 
9.8000002e+00 0.0000000e+00 0.0000000e+00 
9.8999996e+00 0.0000000e+00 0.0000000e+00 
1.0000000e+01 0.0000000e+00 0.0000000e+00 
1.0100000e+01 0.0000000e+00 0.0000000e+00 
1.0200000e+01 0.0000000e+00 0.0000000e+00 
1.0300000e+01 0.0000000e+00 0.0000000e+00 
1.0400000e+01 0.0000000e+00 0.0000000e+00 
1.0500000e+01 0.0000000e+00 0.0000000e+00 
1.0600000e+01 0.0000000e+00 0.0000000e+00 
1.0700000e+01 0.0000000e+00 0.0000000e+00 
1.0800000e+01 0.0000000e+00 0.0000000e+00 
1.0900000e+01 0.0000000e+00 0.0000000e+00 
1.1000000e+01 0.0000000e+00 0.0000000e+00 
1.1100000e+01 0.0000000e+00 0.0000000e+00 
1.1200000e+01 0.0000000e+00 0.0000000e+00 
1.1300000e+01 0.0000000e+00 0.0000000e+00 
1.1400000e+01 0.0000000e+00 0.0000000e+00 
1.1500000e+01 0.0000000e+00 0.0000000e+00 
1.1600000e+01 0.0000000e+00 0.0000000e+00 
1.1700000e+01 0.0000000e+00 0.0000000e+00 
1.1800000e+01 0.0000000e+00 0.0000000e+00 
1.1900000e+01 0.0000000e+00 0.0000000e+00 
1.2000000e+01 0.0000000e+00 0.0000000e+00 
1.2100000e+01 0.0000000e+00 0.0000000e+00 
1.2200000e+01 0.0000000e+00 0.0000000e+00 
1.2300000e+01 0.0000000e+00 0.0000000e+00 
1.2400000e+01 0.0000000e+00 0.0000000e+00 
1.2500000e+01 0.0000000e+00 0.0000000e+00 
1.2600000e+01 0.0000000e+00 0.0000000e+00 
1.2700000e+01 0.0000000e+00 0.0000000e+00 
1.2800000e+01 0.0000000e+00 0.0000000e+00 
1.2900000e+01 0.0000000e+00 0.0000000e+00 
1.3000000e+01 0.0000000e+00 0.0000000e+00 
1.3100000e+01 0.0000000e+00 0.0000000e+00 
1.3200000e+01 0.0000000e+00 0.0000000e+00 
1.3300000e+01 0.0000000e+00 0.0000000e+00 
1.3400000e+01 0.0000000e+00 0.0000000e+00 
1.3500000e+01 0.0000000e+00 0.0000000e+00 
1.3600000e+01 0.0000000e+00 0.0000000e+00 
1.3700000e+01 0.0000000e+00 0.0000000e+00 
1.3800000e+01 0.0000000e+00 0.0000000e+00 
1.3900000e+01 0.0000000e+00 0.0000000e+00 
1.4000000e+01 0.0000000e+00 0.0000000e+00 
1.4100000e+01 0.0000000e+00 0.0000000e+00 
1.4200000e+01 0.0000000e+00 0.0000000e+00 
1.4300000e+01 0.0000000e+00 0.0000000e+00 
1.4400000e+01 0.0000000e+00 0.0000000e+00 
1.4500000e+01 0.0000000e+00 0.0000000e+00 
1.4600000e+01 0.0000000e+00 0.0000000e+00 
1.4700000e+01 0.0000000e+00 0.0000000e+00 
1.4800000e+01 0.0000000e+00 0.0000000e+00 
1.4900000e+01 0.0000000e+00 0.0000000e+00 
1.5000000e+01 0.0000000e+00 0.0000000e+00 
1.5100000e+01 0.0000000e+00 0.0000000e+00 
1.5200000e+01 0.0000000e+00 0.0000000e+00 
1.5300000e+01 0.0000000e+00 0.0000000e+00 
1.5400000e+01 0.0000000e+00 0.0000000e+00 
1.5500000e+01 0.0000000e+00 0.0000000e+00 
1.5600000e+01 0.0000000e+00 0.0000000e+00 
1.5700000e+01 0.0000000e+00 0.0000000e+00 
1.5800000e+01 0.0000000e+00 0.0000000e+00 
1.5900000e+01 0.0000000e+00 0.0000000e+00 
1.6000000e+01 0.0000000e+00 0.0000000e+00 
1.6100000e+01 0.0000000e+00 0.0000000e+00 
1.6200001e+01 0.0000000e+00 0.0000000e+00 
1.6299999e+01 0.0000000e+00 0.0000000e+00 
1.6400000e+01 0.0000000e+00 0.0000000e+00 
1.6500000e+01 0.0000000e+00 0.0000000e+00 
1.6600000e+01 0.0000000e+00 0.0000000e+00 
1.6700001e+01 0.0000000e+00 0.0000000e+00 
1.6799999e+01 0.0000000e+00 0.0000000e+00 
1.6900000e+01 0.0000000e+00 0.0000000e+00 
1.7000000e+01 0.0000000e+00 0.0000000e+00 
1.7100000e+01 0.0000000e+00 0.0000000e+00 
1.7200001e+01 0.0000000e+00 0.0000000e+00 
1.7299999e+01 0.0000000e+00 0.0000000e+00 
1.7400000e+01 0.0000000e+00 0.0000000e+00 
1.7500000e+01 0.0000000e+00 0.0000000e+00 
1.7600000e+01 0.0000000e+00 0.0000000e+00 
1.7700001e+01 0.0000000e+00 0.0000000e+00 
1.7799999e+01 0.0000000e+00 0.0000000e+00 
1.7900000e+01 0.0000000e+00 0.0000000e+00 
1.8000000e+01 0.0000000e+00 0.0000000e+00 
1.8100000e+01 0.0000000e+00 0.0000000e+00 
1.8200001e+01 0.0000000e+00 0.0000000e+00 
1.8299999e+01 0.0000000e+00 0.0000000e+00 
1.8400000e+01 0.0000000e+00 0.0000000e+00 
1.8500000e+01 0.0000000e+00 0.0000000e+00 
1.8600000e+01 0.0000000e+00 0.0000000e+00 
1.8700001e+01 0.0000000e+00 0.0000000e+00 
1.8799999e+01 0.0000000e+00 0.0000000e+00 
1.8900000e+01 0.0000000e+00 0.0000000e+00 
1.9000000e+01 0.0000000e+00 0.0000000e+00 
1.9100000e+01 0.0000000e+00 0.0000000e+00 
1.9200001e+01 0.0000000e+00 0.0000000e+00 
1.9299999e+01 0.0000000e+00 0.0000000e+00 
1.9400000e+01 0.0000000e+00 0.0000000e+00 
1.9500000e+01 0.0000000e+00 0.0000000e+00 
1.9600000e+01 0.0000000e+00 0.0000000e+00 
1.9700001e+01 0.0000000e+00 0.0000000e+00 
1.9799999e+01 0.0000000e+00 0.0000000e+00 
1.9900000e+01 0.0000000e+00 0.0000000e+00 
2.0000000e+01 0.0000000e+00 0.0000000e+00 
2.0100000e+01 0.0000000e+00 0.0000000e+00 
2.0200001e+01 0.0000000e+00 0.0000000e+00 
2.0299999e+01 0.0000000e+00 0.0000000e+00 
2.0400000e+01 0.0000000e+00 0.0000000e+00 
2.0500000e+01 0.0000000e+00 0.0000000e+00 
2.0600000e+01 0.0000000e+00 0.0000000e+00 
2.0700001e+01 0.0000000e+00 0.0000000e+00 
2.0799999e+01 0.0000000e+00 0.0000000e+00 
2.0900000e+01 0.0000000e+00 0.0000000e+00 
2.1000000e+01 0.0000000e+00 0.0000000e+00 
2.1100000e+01 0.0000000e+00 0.0000000e+00 
2.1200001e+01 0.0000000e+00 0.0000000e+00 
2.1299999e+01 0.0000000e+00 0.0000000e+00 
2.1400000e+01 0.0000000e+00 0.0000000e+00 
2.1500000e+01 0.0000000e+00 0.0000000e+00 
2.1600000e+01 0.0000000e+00 0.0000000e+00 
2.1700001e+01 0.0000000e+00 0.0000000e+00 
2.1799999e+01 0.0000000e+00 0.0000000e+00 
2.1900000e+01 0.0000000e+00 0.0000000e+00 
2.2000000e+01 0.0000000e+00 0.0000000e+00 
2.2100000e+01 0.0000000e+00 0.0000000e+00 
2.2200001e+01 0.0000000e+00 0.0000000e+00 
2.2299999e+01 0.0000000e+00 0.0000000e+00 
2.2400000e+01 0.0000000e+00 0.0000000e+00 
2.2500000e+01 0.0000000e+00 0.0000000e+00 
2.2600000e+01 0.0000000e+00 0.0000000e+00 
2.2700001e+01 0.0000000e+00 0.0000000e+00 
2.2799999e+01 0.0000000e+00 0.0000000e+00 
2.2900000e+01 0.0000000e+00 0.0000000e+00 
2.3000000e+01 0.0000000e+00 0.0000000e+00 
2.3100000e+01 0.0000000e+00 0.0000000e+00 
2.3200001e+01 0.0000000e+00 0.0000000e+00 
2.3299999e+01 0.0000000e+00 0.0000000e+00 
2.3400000e+01 0.0000000e+00 0.0000000e+00 
2.3500000e+01 0.0000000e+00 0.0000000e+00 
2.3600000e+01 0.0000000e+00 0.0000000e+00 
2.3700001e+01 0.0000000e+00 0.0000000e+00 
2.3799999e+01 0.0000000e+00 0.0000000e+00 
2.3900000e+01 0.0000000e+00 0.0000000e+00 
2.4000000e+01 0.0000000e+00 0.0000000e+00 
2.4100000e+01 0.0000000e+00 0.0000000e+00 
2.4200001e+01 0.0000000e+00 0.0000000e+00 
2.4299999e+01 0.0000000e+00 0.0000000e+00 
2.4400000e+01 0.0000000e+00 0.0000000e+00 
2.4500000e+01 0.0000000e+00 0.0000000e+00 
2.4600000e+01 0.0000000e+00 0.0000000e+00 
2.4700001e+01 0.0000000e+00 0.0000000e+00 
2.4799999e+01 0.0000000e+00 0.0000000e+00 
2.4900000e+01 0.0000000e+00 0.0000000e+00 

CELLS 250 750
2 0 2
2 2 3
2 3 4
2 4 5
2 5 6
2 6 7
2 7 8
2 8 9
2 9 10
2 10 11
2 11 12
2 12 13
2 13 14
2 14 15
2 15 16
2 16 17
2 17 18
2 18 19
2 19 20
2 20 21
2 21 22
2 22 23
2 23 24
2 24 25
2 25 26
2 26 27
2 27 28
2 28 29
2 29 30
2 30 31
2 31 32
2 32 33
2 33 34
2 34 35
2 35 36
2 36 37
2 37 38
2 38 39
2 39 40
2 40 41
2 41 42
2 42 43
2 43 44
2 44 45
2 45 46
2 46 47
2 47 48
2 48 49
2 49 50
2 50 51
2 51 52
2 52 53
2 53 54
2 54 55
2 55 56
2 56 57
2 57 58
2 58 59
2 59 60
2 60 61
2 61 62
2 62 63
2 63 64
2 64 65
2 65 66
2 66 67
2 67 68
2 68 69
2 69 70
2 70 71
2 71 72
2 72 73
2 73 74
2 74 75
2 75 76
2 76 77
2 77 78
2 78 79
2 79 80
2 80 81
2 81 82
2 82 83
2 83 84
2 84 85
2 85 86
2 86 87
2 87 88
2 88 89
2 89 90
2 90 91
2 91 92
2 92 93
2 93 94
2 94 95
2 95 96
2 96 97
2 97 98
2 98 99
2 99 100
2 100 101
2 101 102
2 102 103
2 103 104
2 104 105
2 105 106
2 106 107
2 107 108
2 108 109
2 109 110
2 110 111
2 111 112
2 112 113
2 113 114
2 114 115
2 115 116
2 116 117
2 117 118
2 118 119
2 119 120
2 120 121
2 121 122
2 122 123
2 123 124
2 124 125
2 125 126
2 126 127
2 127 128
2 128 129
2 129 130
2 130 131
2 131 132
2 132 133
2 133 134
2 134 135
2 135 136
2 136 137
2 137 138
2 138 139
2 139 140
2 140 141
2 141 142
2 142 143
2 143 144
2 144 145
2 145 146
2 146 147
2 147 148
2 148 149
2 149 150
2 150 151
2 151 152
2 152 153
2 153 154
2 154 155
2 155 156
2 156 157
2 157 158
2 158 159
2 159 160
2 160 161
2 161 162
2 162 163
2 163 164
2 164 165
2 165 166
2 166 167
2 167 168
2 168 169
2 169 170
2 170 171
2 171 172
2 172 173
2 173 174
2 174 175
2 175 176
2 176 177
2 177 178
2 178 179
2 179 180
2 180 181
2 181 182
2 182 183
2 183 184
2 184 185
2 185 186
2 186 187
2 187 188
2 188 189
2 189 190
2 190 191
2 191 192
2 192 193
2 193 194
2 194 195
2 195 196
2 196 197
2 197 198
2 198 199
2 199 200
2 200 201
2 201 202
2 202 203
2 203 204
2 204 205
2 205 206
2 206 207
2 207 208
2 208 209
2 209 210
2 210 211
2 211 212
2 212 213
2 213 214
2 214 215
2 215 216
2 216 217
2 217 218
2 218 219
2 219 220
2 220 221
2 221 222
2 222 223
2 223 224
2 224 225
2 225 226
2 226 227
2 227 228
2 228 229
2 229 230
2 230 231
2 231 232
2 232 233
2 233 234
2 234 235
2 235 236
2 236 237
2 237 238
2 238 239
2 239 240
2 240 241
2 241 242
2 242 243
2 243 244
2 244 245
2 245 246
2 246 247
2 247 248
2 248 249
2 249 250
2 250 1

CELL_TYPES 250
3
3
3
3
3
3
3
3
3
3
3
3
3
3
3
3
3
3
3
3
3
3
3
3
3
3
3
3
3
3
3
3
3
3
3
3
3
3
3
3
3
3
3
3
3
3
3
3
3
3
3
3
3
3
3
3
3
3
3
3
3
3
3
3
3
3
3
3
3
3
3
3
3
3
3
3
3
3
3
3
3
3
3
3
3
3
3
3
3
3
3
3
3
3
3
3
3
3
3
3
3
3
3
3
3
3
3
3
3
3
3
3
3
3
3
3
3
3
3
3
3
3
3
3
3
3
3
3
3
3
3
3
3
3
3
3
3
3
3
3
3
3
3
3
3
3
3
3
3
3
3
3
3
3
3
3
3
3
3
3
3
3
3
3
3
3
3
3
3
3
3
3
3
3
3
3
3
3
3
3
3
3
3
3
3
3
3
3
3
3
3
3
3
3
3
3
3
3
3
3
3
3
3
3
3
3
3
3
3
3
3
3
3
3
3
3
3
3
3
3
3
3
3
3
3
3
3
3
3
3
3
3
3
3
3
3
3
3
3
3
3
3
3
3
3
3
3
3
3
3
POINT_DATA 251
FIELD FieldData 1
DISPLACEMENT 3 251  float
0.0000000e+00 0.0000000e+00 0.0000000e+00 
0.0000000e+00 0.0000000e+00 0.0000000e+00 
0.0000000e+00 -1.8677431e-04 0.0000000e+00 
0.0000000e+00 -3.7346318e-04 0.0000000e+00 
0.0000000e+00 -5.5998116e-04 0.0000000e+00 
0.0000000e+00 -7.4624282e-04 0.0000000e+00 
0.0000000e+00 -9.3216274e-04 0.0000000e+00 
0.0000000e+00 -1.1176554e-03 0.0000000e+00 
0.0000000e+00 -1.3026355e-03 0.0000000e+00 
0.0000000e+00 -1.4870175e-03 0.0000000e+00 
0.0000000e+00 -1.6707160e-03 0.0000000e+00 
0.0000000e+00 -1.8536455e-03 0.0000000e+00 
0.0000000e+00 -2.0357207e-03 0.0000000e+00 
0.0000000e+00 -2.2168560e-03 0.0000000e+00 
0.0000000e+00 -2.3969661e-03 0.0000000e+00 
0.0000000e+00 -2.5759654e-03 0.0000000e+00 
0.0000000e+00 -2.7537686e-03 0.0000000e+00 
0.0000000e+00 -2.9302901e-03 0.0000000e+00 
0.0000000e+00 -3.1054448e-03 0.0000000e+00 
0.0000000e+00 -3.2791467e-03 0.0000000e+00 
0.0000000e+00 -3.4513110e-03 0.0000000e+00 
0.0000000e+00 -3.6218518e-03 0.0000000e+00 
0.0000000e+00 -3.7906838e-03 0.0000000e+00 
0.0000000e+00 -3.9577219e-03 0.0000000e+00 
0.0000000e+00 -4.1228798e-03 0.0000000e+00 
0.0000000e+00 -4.2860731e-03 0.0000000e+00 
0.0000000e+00 -4.4472157e-03 0.0000000e+00 
0.0000000e+00 -4.6062223e-03 0.0000000e+00 
0.0000000e+00 -4.7630072e-03 0.0000000e+00 
0.0000000e+00 -4.9174856e-03 0.0000000e+00 
0.0000000e+00 -5.0696004e-03 0.0000000e+00 
0.0000000e+00 -5.2193552e-03 0.0000000e+00 
0.0000000e+00 -5.3667608e-03 0.0000000e+00 
0.0000000e+00 -5.5118268e-03 0.0000000e+00 
0.0000000e+00 -5.6545651e-03 0.0000000e+00 
0.0000000e+00 -5.7949857e-03 0.0000000e+00 
0.0000000e+00 -5.9330990e-03 0.0000000e+00 
0.0000000e+00 -6.0689165e-03 0.0000000e+00 
0.0000000e+00 -6.2024486e-03 0.0000000e+00 
0.0000000e+00 -6.3337060e-03 0.0000000e+00 
0.0000000e+00 -6.4626988e-03 0.0000000e+00 
0.0000000e+00 -6.5894383e-03 0.0000000e+00 
0.0000000e+00 -6.7139352e-03 0.0000000e+00 
0.0000000e+00 -6.8361997e-03 0.0000000e+00 
0.0000000e+00 -6.9562430e-03 0.0000000e+00 
0.0000000e+00 -7.0740758e-03 0.0000000e+00 
0.0000000e+00 -7.1897083e-03 0.0000000e+00 
0.0000000e+00 -7.3031513e-03 0.0000000e+00 
0.0000000e+00 -7.4144155e-03 0.0000000e+00 
0.0000000e+00 -7.5235120e-03 0.0000000e+00 
0.0000000e+00 -7.6304511e-03 0.0000000e+00 
0.0000000e+00 -7.7352431e-03 0.0000000e+00 
0.0000000e+00 -7.8379000e-03 0.0000000e+00 
0.0000000e+00 -7.9384306e-03 0.0000000e+00 
0.0000000e+00 -8.0368472e-03 0.0000000e+00 
0.0000000e+00 -8.1331600e-03 0.0000000e+00 
0.0000000e+00 -8.2273791e-03 0.0000000e+00 
0.0000000e+00 -8.3195157e-03 0.0000000e+00 
0.0000000e+00 -8.4095802e-03 0.0000000e+00 
0.0000000e+00 -8.4975837e-03 0.0000000e+00 
0.0000000e+00 -8.5835373e-03 0.0000000e+00 
0.0000000e+00 -8.6674504e-03 0.0000000e+00 
0.0000000e+00 -8.7493341e-03 0.0000000e+00 
0.0000000e+00 -8.8291997e-03 0.0000000e+00 
0.0000000e+00 -8.9070573e-03 0.0000000e+00 
0.0000000e+00 -8.9829173e-03 0.0000000e+00 
0.0000000e+00 -9.0567917e-03 0.0000000e+00 
0.0000000e+00 -9.1286898e-03 0.0000000e+00 
0.0000000e+00 -9.1986228e-03 0.0000000e+00 
0.0000000e+00 -9.2666019e-03 0.0000000e+00 
0.0000000e+00 -9.3326364e-03 0.0000000e+00 
0.0000000e+00 -9.3967384e-03 0.0000000e+00 
0.0000000e+00 -9.4589181e-03 0.0000000e+00 
0.0000000e+00 -9.5191859e-03 0.0000000e+00 
0.0000000e+00 -9.5775528e-03 0.0000000e+00 
0.0000000e+00 -9.6340291e-03 0.0000000e+00 
0.0000000e+00 -9.6886260e-03 0.0000000e+00 
0.0000000e+00 -9.7413538e-03 0.0000000e+00 
0.0000000e+00 -9.7922226e-03 0.0000000e+00 
0.0000000e+00 -9.8412447e-03 0.0000000e+00 
0.0000000e+00 -9.8884301e-03 0.0000000e+00 
0.0000000e+00 -9.9337883e-03 0.0000000e+00 
0.0000000e+00 -9.9773314e-03 0.0000000e+00 
0.0000000e+00 -1.0019070e-02 0.0000000e+00 
0.0000000e+00 -1.0059014e-02 0.0000000e+00 
0.0000000e+00 -1.0097174e-02 0.0000000e+00 
0.0000000e+00 -1.0133562e-02 0.0000000e+00 
0.0000000e+00 -1.0168186e-02 0.0000000e+00 
0.0000000e+00 -1.0201061e-02 0.0000000e+00 
0.0000000e+00 -1.0232193e-02 0.0000000e+00 
0.0000000e+00 -1.0261596e-02 0.0000000e+00 
0.0000000e+00 -1.0289280e-02 0.0000000e+00 
0.0000000e+00 -1.0315254e-02 0.0000000e+00 
0.0000000e+00 -1.0339531e-02 0.0000000e+00 
0.0000000e+00 -1.0362120e-02 0.0000000e+00 
0.0000000e+00 -1.0383032e-02 0.0000000e+00 
0.0000000e+00 -1.0402279e-02 0.0000000e+00 
0.0000000e+00 -1.0419870e-02 0.0000000e+00 
0.0000000e+00 -1.0435816e-02 0.0000000e+00 
0.0000000e+00 -1.0450128e-02 0.0000000e+00 
0.0000000e+00 -1.0462817e-02 0.0000000e+00 
0.0000000e+00 -1.0473893e-02 0.0000000e+00 
0.0000000e+00 -1.0483367e-02 0.0000000e+00 
0.0000000e+00 -1.0491250e-02 0.0000000e+00 
0.0000000e+00 -1.0497552e-02 0.0000000e+00 
0.0000000e+00 -1.0502284e-02 0.0000000e+00 
0.0000000e+00 -1.0505457e-02 0.0000000e+00 
0.0000000e+00 -1.0507082e-02 0.0000000e+00 
0.0000000e+00 -1.0507168e-02 0.0000000e+00 
0.0000000e+00 -1.0505727e-02 0.0000000e+00 
0.0000000e+00 -1.0502771e-02 0.0000000e+00 
0.0000000e+00 -1.0498308e-02 0.0000000e+00 
0.0000000e+00 -1.0492349e-02 0.0000000e+00 
0.0000000e+00 -1.0484906e-02 0.0000000e+00 
0.0000000e+00 -1.0475989e-02 0.0000000e+00 
0.0000000e+00 -1.0465610e-02 0.0000000e+00 
0.0000000e+00 -1.0453777e-02 0.0000000e+00 
0.0000000e+00 -1.0440503e-02 0.0000000e+00 
0.0000000e+00 -1.0425799e-02 0.0000000e+00 
0.0000000e+00 -1.0409673e-02 0.0000000e+00 
0.0000000e+00 -1.0392138e-02 0.0000000e+00 
0.0000000e+00 -1.0373203e-02 0.0000000e+00 
0.0000000e+00 -1.0352880e-02 0.0000000e+00 
0.0000000e+00 -1.0331180e-02 0.0000000e+00 
0.0000000e+00 -1.0308112e-02 0.0000000e+00 
0.0000000e+00 -1.0283688e-02 0.0000000e+00 
0.0000000e+00 -1.0257918e-02 0.0000000e+00 
0.0000000e+00 -1.0230814e-02 0.0000000e+00 
0.0000000e+00 -1.0202385e-02 0.0000000e+00 
0.0000000e+00 -1.0172643e-02 0.0000000e+00 
0.0000000e+00 -1.0141597e-02 0.0000000e+00 
0.0000000e+00 -1.0109260e-02 0.0000000e+00 
0.0000000e+00 -1.0075641e-02 0.0000000e+00 
0.0000000e+00 -1.0040751e-02 0.0000000e+00 
0.0000000e+00 -1.0004600e-02 0.0000000e+00 
0.0000000e+00 -9.9671995e-03 0.0000000e+00 
0.0000000e+00 -9.9285608e-03 0.0000000e+00 
0.0000000e+00 -9.8886937e-03 0.0000000e+00 
0.0000000e+00 -9.8476093e-03 0.0000000e+00 
0.0000000e+00 -9.8053180e-03 0.0000000e+00 
0.0000000e+00 -9.7618308e-03 0.0000000e+00 
0.0000000e+00 -9.7171580e-03 0.0000000e+00 
0.0000000e+00 -9.6713100e-03 0.0000000e+00 
0.0000000e+00 -9.6242977e-03 0.0000000e+00 
0.0000000e+00 -9.5761325e-03 0.0000000e+00 
0.0000000e+00 -9.5268246e-03 0.0000000e+00 
0.0000000e+00 -9.4763841e-03 0.0000000e+00 
0.0000000e+00 -9.4248233e-03 0.0000000e+00 
0.0000000e+00 -9.3721505e-03 0.0000000e+00 
0.0000000e+00 -9.3183788e-03 0.0000000e+00 
0.0000000e+00 -9.2635164e-03 0.0000000e+00 
0.0000000e+00 -9.2075765e-03 0.0000000e+00 
0.0000000e+00 -9.1505684e-03 0.0000000e+00 
0.0000000e+00 -9.0925023e-03 0.0000000e+00 
0.0000000e+00 -9.0333903e-03 0.0000000e+00 
0.0000000e+00 -8.9732418e-03 0.0000000e+00 
0.0000000e+00 -8.9120688e-03 0.0000000e+00 
0.0000000e+00 -8.8498807e-03 0.0000000e+00 
0.0000000e+00 -8.7866886e-03 0.0000000e+00 
0.0000000e+00 -8.7225037e-03 0.0000000e+00 
0.0000000e+00 -8.6573362e-03 0.0000000e+00 
0.0000000e+00 -8.5911965e-03 0.0000000e+00 
0.0000000e+00 -8.5240956e-03 0.0000000e+00 
0.0000000e+00 -8.4560439e-03 0.0000000e+00 
0.0000000e+00 -8.3870534e-03 0.0000000e+00 
0.0000000e+00 -8.3171325e-03 0.0000000e+00 
0.0000000e+00 -8.2462942e-03 0.0000000e+00 
0.0000000e+00 -8.1745470e-03 0.0000000e+00 
0.0000000e+00 -8.1019038e-03 0.0000000e+00 
0.0000000e+00 -8.0283741e-03 0.0000000e+00 
0.0000000e+00 -7.9539679e-03 0.0000000e+00 
0.0000000e+00 -7.8786965e-03 0.0000000e+00 
0.0000000e+00 -7.8025716e-03 0.0000000e+00 
0.0000000e+00 -7.7256025e-03 0.0000000e+00 
0.0000000e+00 -7.6478003e-03 0.0000000e+00 
0.0000000e+00 -7.5691761e-03 0.0000000e+00 
0.0000000e+00 -7.4897399e-03 0.0000000e+00 
0.0000000e+00 -7.4095028e-03 0.0000000e+00 
0.0000000e+00 -7.3284754e-03 0.0000000e+00 
0.0000000e+00 -7.2466685e-03 0.0000000e+00 
0.0000000e+00 -7.1640923e-03 0.0000000e+00 
0.0000000e+00 -7.0807580e-03 0.0000000e+00 
0.0000000e+00 -6.9966763e-03 0.0000000e+00 
0.0000000e+00 -6.9118575e-03 0.0000000e+00 
0.0000000e+00 -6.8263127e-03 0.0000000e+00 
0.0000000e+00 -6.7400518e-03 0.0000000e+00 
0.0000000e+00 -6.6530867e-03 0.0000000e+00 
0.0000000e+00 -6.5654269e-03 0.0000000e+00 
0.0000000e+00 -6.4770840e-03 0.0000000e+00 
0.0000000e+00 -6.3880677e-03 0.0000000e+00 
0.0000000e+00 -6.2983898e-03 0.0000000e+00 
0.0000000e+00 -6.2080603e-03 0.0000000e+00 
0.0000000e+00 -6.1170897e-03 0.0000000e+00 
0.0000000e+00 -6.0254894e-03 0.0000000e+00 
0.0000000e+00 -5.9332694e-03 0.0000000e+00 
0.0000000e+00 -5.8404407e-03 0.0000000e+00 
0.0000000e+00 -5.7470137e-03 0.0000000e+00 
0.0000000e+00 -5.6529995e-03 0.0000000e+00 
0.0000000e+00 -5.5584088e-03 0.0000000e+00 
0.0000000e+00 -5.4632518e-03 0.0000000e+00 
0.0000000e+00 -5.3675394e-03 0.0000000e+00 
0.0000000e+00 -5.2712825e-03 0.0000000e+00 
0.0000000e+00 -5.1744916e-03 0.0000000e+00 
0.0000000e+00 -5.0771772e-03 0.0000000e+00 
0.0000000e+00 -4.9793506e-03 0.0000000e+00 
0.0000000e+00 -4.8810216e-03 0.0000000e+00 
0.0000000e+00 -4.7822017e-03 0.0000000e+00 
0.0000000e+00 -4.6829008e-03 0.0000000e+00 
0.0000000e+00 -4.5831301e-03 0.0000000e+00 
0.0000000e+00 -4.4829003e-03 0.0000000e+00 
0.0000000e+00 -4.3822220e-03 0.0000000e+00 
0.0000000e+00 -4.2811055e-03 0.0000000e+00 
0.0000000e+00 -4.1795620e-03 0.0000000e+00 
0.0000000e+00 -4.0776022e-03 0.0000000e+00 
0.0000000e+00 -3.9752363e-03 0.0000000e+00 
0.0000000e+00 -3.8724751e-03 0.0000000e+00 
0.0000000e+00 -3.7693297e-03 0.0000000e+00 
0.0000000e+00 -3.6658105e-03 0.0000000e+00 
0.0000000e+00 -3.5619279e-03 0.0000000e+00 
0.0000000e+00 -3.4576932e-03 0.0000000e+00 
0.0000000e+00 -3.3531166e-03 0.0000000e+00 
0.0000000e+00 -3.2482089e-03 0.0000000e+00 
0.0000000e+00 -3.1429809e-03 0.0000000e+00 
0.0000000e+00 -3.0374429e-03 0.0000000e+00 
0.0000000e+00 -2.9316063e-03 0.0000000e+00 
0.0000000e+00 -2.8254809e-03 0.0000000e+00 
0.0000000e+00 -2.7190782e-03 0.0000000e+00 
0.0000000e+00 -2.6124083e-03 0.0000000e+00 
0.0000000e+00 -2.5054822e-03 0.0000000e+00 
0.0000000e+00 -2.3983102e-03 0.0000000e+00 
0.0000000e+00 -2.2909034e-03 0.0000000e+00 
0.0000000e+00 -2.1832725e-03 0.0000000e+00 
0.0000000e+00 -2.0754277e-03 0.0000000e+00 
0.0000000e+00 -1.9673803e-03 0.0000000e+00 
0.0000000e+00 -1.8591403e-03 0.0000000e+00 
0.0000000e+00 -1.7507190e-03 0.0000000e+00 
0.0000000e+00 -1.6421268e-03 0.0000000e+00 
0.0000000e+00 -1.5333743e-03 0.0000000e+00 
0.0000000e+00 -1.4244723e-03 0.0000000e+00 
0.0000000e+00 -1.3154316e-03 0.0000000e+00 
0.0000000e+00 -1.2062626e-03 0.0000000e+00 
0.0000000e+00 -1.0969761e-03 0.0000000e+00 
0.0000000e+00 -9.8758296e-04 0.0000000e+00 
0.0000000e+00 -8.7809359e-04 0.0000000e+00 
0.0000000e+00 -7.6851877e-04 0.0000000e+00 
0.0000000e+00 -6.5886922e-04 0.0000000e+00 
0.0000000e+00 -5.4915558e-04 0.0000000e+00 
0.0000000e+00 -4.3938853e-04 0.0000000e+00 
0.0000000e+00 -3.2957879e-04 0.0000000e+00 
0.0000000e+00 -2.1973699e-04 0.0000000e+00 
0.0000000e+00 -1.0987384e-04 0.0000000e+00 
CELL_DATA 250
FIELD FieldData 0
