# vtk DataFile Version 4.0
vtk output
ASCII
DATASET UNSTRUCTURED_GRID
POINTS 251 float
0.0000000e+00 0.0000000e+00 0.0000000e+00 
2.5000000e+01 0.0000000e+00 0.0000000e+00 
1.0000000e-01 0.0000000e+00 0.0000000e+00 
2.0000000e-01 0.0000000e+00 0.0000000e+00 
3.0000001e-01 0.0000000e+00 0.0000000e+00 
4.0000001e-01 0.0000000e+00 0.0000000e+00 
5.0000000e-01 0.0000000e+00 0.0000000e+00 
6.0000002e-01 0.0000000e+00 0.0000000e+00 
6.9999999e-01 0.0000000e+00 0.0000000e+00 
8.0000001e-01 0.0000000e+00 0.0000000e+00 
8.9999998e-01 0.0000000e+00 0.0000000e+00 
1.0000000e+00 0.0000000e+00 0.0000000e+00 
1.1000000e+00 0.0000000e+00 0.0000000e+00 
1.2000000e+00 0.0000000e+00 0.0000000e+00 
1.3000000e+00 0.0000000e+00 0.0000000e+00 
1.4000000e+00 0.0000000e+00 0.0000000e+00 
1.5000000e+00 0.0000000e+00 0.0000000e+00 
1.6000000e+00 0.0000000e+00 0.0000000e+00 
1.7000000e+00 0.0000000e+00 0.0000000e+00 
1.8000000e+00 0.0000000e+00 0.0000000e+00 
1.9000000e+00 0.0000000e+00 0.0000000e+00 
2.0000000e+00 0.0000000e+00 0.0000000e+00 
2.0999999e+00 0.0000000e+00 0.0000000e+00 
2.2000000e+00 0.0000000e+00 0.0000000e+00 
2.3000000e+00 0.0000000e+00 0.0000000e+00 
2.4000001e+00 0.0000000e+00 0.0000000e+00 
2.5000000e+00 0.0000000e+00 0.0000000e+00 
2.5999999e+00 0.0000000e+00 0.0000000e+00 
2.7000000e+00 0.0000000e+00 0.0000000e+00 
2.8000000e+00 0.0000000e+00 0.0000000e+00 
2.9000001e+00 0.0000000e+00 0.0000000e+00 
3.0000000e+00 0.0000000e+00 0.0000000e+00 
3.0999999e+00 0.0000000e+00 0.0000000e+00 
3.2000000e+00 0.0000000e+00 0.0000000e+00 
3.3000000e+00 0.0000000e+00 0.0000000e+00 
3.4000001e+00 0.0000000e+00 0.0000000e+00 
3.5000000e+00 0.0000000e+00 0.0000000e+00 
3.5999999e+00 0.0000000e+00 0.0000000e+00 
3.7000000e+00 0.0000000e+00 0.0000000e+00 
3.8000000e+00 0.0000000e+00 0.0000000e+00 
3.9000001e+00 0.0000000e+00 0.0000000e+00 
4.0000000e+00 0.0000000e+00 0.0000000e+00 
4.0999999e+00 0.0000000e+00 0.0000000e+00 
4.1999998e+00 0.0000000e+00 0.0000000e+00 
4.3000002e+00 0.0000000e+00 0.0000000e+00 
4.4000001e+00 0.0000000e+00 0.0000000e+00 
4.5000000e+00 0.0000000e+00 0.0000000e+00 
4.5999999e+00 0.0000000e+00 0.0000000e+00 
4.6999998e+00 0.0000000e+00 0.0000000e+00 
4.8000002e+00 0.0000000e+00 0.0000000e+00 
4.9000001e+00 0.0000000e+00 0.0000000e+00 
5.0000000e+00 0.0000000e+00 0.0000000e+00 
5.0999999e+00 0.0000000e+00 0.0000000e+00 
5.1999998e+00 0.0000000e+00 0.0000000e+00 
5.3000002e+00 0.0000000e+00 0.0000000e+00 
5.4000001e+00 0.0000000e+00 0.0000000e+00 
5.5000000e+00 0.0000000e+00 0.0000000e+00 
5.5999999e+00 0.0000000e+00 0.0000000e+00 
5.6999998e+00 0.0000000e+00 0.0000000e+00 
5.8000002e+00 0.0000000e+00 0.0000000e+00 
5.9000001e+00 0.0000000e+00 0.0000000e+00 
6.0000000e+00 0.0000000e+00 0.0000000e+00 
6.0999999e+00 0.0000000e+00 0.0000000e+00 
6.1999998e+00 0.0000000e+00 0.0000000e+00 
6.3000002e+00 0.0000000e+00 0.0000000e+00 
6.4000001e+00 0.0000000e+00 0.0000000e+00 
6.5000000e+00 0.0000000e+00 0.0000000e+00 
6.5999999e+00 0.0000000e+00 0.0000000e+00 
6.6999998e+00 0.0000000e+00 0.0000000e+00 
6.8000002e+00 0.0000000e+00 0.0000000e+00 
6.9000001e+00 0.0000000e+00 0.0000000e+00 
7.0000000e+00 0.0000000e+00 0.0000000e+00 
7.0999999e+00 0.0000000e+00 0.0000000e+00 
7.1999998e+00 0.0000000e+00 0.0000000e+00 
7.3000002e+00 0.0000000e+00 0.0000000e+00 
7.4000001e+00 0.0000000e+00 0.0000000e+00 
7.5000000e+00 0.0000000e+00 0.0000000e+00 
7.5999999e+00 0.0000000e+00 0.0000000e+00 
7.6999998e+00 0.0000000e+00 0.0000000e+00 
7.8000002e+00 0.0000000e+00 0.0000000e+00 
7.9000001e+00 0.0000000e+00 0.0000000e+00 
8.0000000e+00 0.0000000e+00 0.0000000e+00 
8.1000004e+00 0.0000000e+00 0.0000000e+00 
8.1999998e+00 0.0000000e+00 0.0000000e+00 
8.3000002e+00 0.0000000e+00 0.0000000e+00 
8.3999996e+00 0.0000000e+00 0.0000000e+00 
8.5000000e+00 0.0000000e+00 0.0000000e+00 
8.6000004e+00 0.0000000e+00 0.0000000e+00 
8.6999998e+00 0.0000000e+00 0.0000000e+00 
8.8000002e+00 0.0000000e+00 0.0000000e+00 
8.8999996e+00 0.0000000e+00 0.0000000e+00 
9.0000000e+00 0.0000000e+00 0.0000000e+00 
9.1000004e+00 0.0000000e+00 0.0000000e+00 
9.1999998e+00 0.0000000e+00 0.0000000e+00 
9.3000002e+00 0.0000000e+00 0.0000000e+00 
9.3999996e+00 0.0000000e+00 0.0000000e+00 
9.5000000e+00 0.0000000e+00 0.0000000e+00 
9.6000004e+00 0.0000000e+00 0.0000000e+00 
9.6999998e+00 0.0000000e+00 0.0000000e+00 
9.8000002e+00 0.0000000e+00 0.0000000e+00 
9.8999996e+00 0.0000000e+00 0.0000000e+00 
1.0000000e+01 0.0000000e+00 0.0000000e+00 
1.0100000e+01 0.0000000e+00 0.0000000e+00 
1.0200000e+01 0.0000000e+00 0.0000000e+00 
1.0300000e+01 0.0000000e+00 0.0000000e+00 
1.0400000e+01 0.0000000e+00 0.0000000e+00 
1.0500000e+01 0.0000000e+00 0.0000000e+00 
1.0600000e+01 0.0000000e+00 0.0000000e+00 
1.0700000e+01 0.0000000e+00 0.0000000e+00 
1.0800000e+01 0.0000000e+00 0.0000000e+00 
1.0900000e+01 0.0000000e+00 0.0000000e+00 
1.1000000e+01 0.0000000e+00 0.0000000e+00 
1.1100000e+01 0.0000000e+00 0.0000000e+00 
1.1200000e+01 0.0000000e+00 0.0000000e+00 
1.1300000e+01 0.0000000e+00 0.0000000e+00 
1.1400000e+01 0.0000000e+00 0.0000000e+00 
1.1500000e+01 0.0000000e+00 0.0000000e+00 
1.1600000e+01 0.0000000e+00 0.0000000e+00 
1.1700000e+01 0.0000000e+00 0.0000000e+00 
1.1800000e+01 0.0000000e+00 0.0000000e+00 
1.1900000e+01 0.0000000e+00 0.0000000e+00 
1.2000000e+01 0.0000000e+00 0.0000000e+00 
1.2100000e+01 0.0000000e+00 0.0000000e+00 
1.2200000e+01 0.0000000e+00 0.0000000e+00 
1.2300000e+01 0.0000000e+00 0.0000000e+00 
1.2400000e+01 0.0000000e+00 0.0000000e+00 
1.2500000e+01 0.0000000e+00 0.0000000e+00 
1.2600000e+01 0.0000000e+00 0.0000000e+00 
1.2700000e+01 0.0000000e+00 0.0000000e+00 
1.2800000e+01 0.0000000e+00 0.0000000e+00 
1.2900000e+01 0.0000000e+00 0.0000000e+00 
1.3000000e+01 0.0000000e+00 0.0000000e+00 
1.3100000e+01 0.0000000e+00 0.0000000e+00 
1.3200000e+01 0.0000000e+00 0.0000000e+00 
1.3300000e+01 0.0000000e+00 0.0000000e+00 
1.3400000e+01 0.0000000e+00 0.0000000e+00 
1.3500000e+01 0.0000000e+00 0.0000000e+00 
1.3600000e+01 0.0000000e+00 0.0000000e+00 
1.3700000e+01 0.0000000e+00 0.0000000e+00 
1.3800000e+01 0.0000000e+00 0.0000000e+00 
1.3900000e+01 0.0000000e+00 0.0000000e+00 
1.4000000e+01 0.0000000e+00 0.0000000e+00 
1.4100000e+01 0.0000000e+00 0.0000000e+00 
1.4200000e+01 0.0000000e+00 0.0000000e+00 
1.4300000e+01 0.0000000e+00 0.0000000e+00 
1.4400000e+01 0.0000000e+00 0.0000000e+00 
1.4500000e+01 0.0000000e+00 0.0000000e+00 
1.4600000e+01 0.0000000e+00 0.0000000e+00 
1.4700000e+01 0.0000000e+00 0.0000000e+00 
1.4800000e+01 0.0000000e+00 0.0000000e+00 
1.4900000e+01 0.0000000e+00 0.0000000e+00 
1.5000000e+01 0.0000000e+00 0.0000000e+00 
1.5100000e+01 0.0000000e+00 0.0000000e+00 
1.5200000e+01 0.0000000e+00 0.0000000e+00 
1.5300000e+01 0.0000000e+00 0.0000000e+00 
1.5400000e+01 0.0000000e+00 0.0000000e+00 
1.5500000e+01 0.0000000e+00 0.0000000e+00 
1.5600000e+01 0.0000000e+00 0.0000000e+00 
1.5700000e+01 0.0000000e+00 0.0000000e+00 
1.5800000e+01 0.0000000e+00 0.0000000e+00 
1.5900000e+01 0.0000000e+00 0.0000000e+00 
1.6000000e+01 0.0000000e+00 0.0000000e+00 
1.6100000e+01 0.0000000e+00 0.0000000e+00 
1.6200001e+01 0.0000000e+00 0.0000000e+00 
1.6299999e+01 0.0000000e+00 0.0000000e+00 
1.6400000e+01 0.0000000e+00 0.0000000e+00 
1.6500000e+01 0.0000000e+00 0.0000000e+00 
1.6600000e+01 0.0000000e+00 0.0000000e+00 
1.6700001e+01 0.0000000e+00 0.0000000e+00 
1.6799999e+01 0.0000000e+00 0.0000000e+00 
1.6900000e+01 0.0000000e+00 0.0000000e+00 
1.7000000e+01 0.0000000e+00 0.0000000e+00 
1.7100000e+01 0.0000000e+00 0.0000000e+00 
1.7200001e+01 0.0000000e+00 0.0000000e+00 
1.7299999e+01 0.0000000e+00 0.0000000e+00 
1.7400000e+01 0.0000000e+00 0.0000000e+00 
1.7500000e+01 0.0000000e+00 0.0000000e+00 
1.7600000e+01 0.0000000e+00 0.0000000e+00 
1.7700001e+01 0.0000000e+00 0.0000000e+00 
1.7799999e+01 0.0000000e+00 0.0000000e+00 
1.7900000e+01 0.0000000e+00 0.0000000e+00 
1.8000000e+01 0.0000000e+00 0.0000000e+00 
1.8100000e+01 0.0000000e+00 0.0000000e+00 
1.8200001e+01 0.0000000e+00 0.0000000e+00 
1.8299999e+01 0.0000000e+00 0.0000000e+00 
1.8400000e+01 0.0000000e+00 0.0000000e+00 
1.8500000e+01 0.0000000e+00 0.0000000e+00 
1.8600000e+01 0.0000000e+00 0.0000000e+00 
1.8700001e+01 0.0000000e+00 0.0000000e+00 
1.8799999e+01 0.0000000e+00 0.0000000e+00 
1.8900000e+01 0.0000000e+00 0.0000000e+00 
1.9000000e+01 0.0000000e+00 0.0000000e+00 
1.9100000e+01 0.0000000e+00 0.0000000e+00 
1.9200001e+01 0.0000000e+00 0.0000000e+00 
1.9299999e+01 0.0000000e+00 0.0000000e+00 
1.9400000e+01 0.0000000e+00 0.0000000e+00 
1.9500000e+01 0.0000000e+00 0.0000000e+00 
1.9600000e+01 0.0000000e+00 0.0000000e+00 
1.9700001e+01 0.0000000e+00 0.0000000e+00 
1.9799999e+01 0.0000000e+00 0.0000000e+00 
1.9900000e+01 0.0000000e+00 0.0000000e+00 
2.0000000e+01 0.0000000e+00 0.0000000e+00 
2.0100000e+01 0.0000000e+00 0.0000000e+00 
2.0200001e+01 0.0000000e+00 0.0000000e+00 
2.0299999e+01 0.0000000e+00 0.0000000e+00 
2.0400000e+01 0.0000000e+00 0.0000000e+00 
2.0500000e+01 0.0000000e+00 0.0000000e+00 
2.0600000e+01 0.0000000e+00 0.0000000e+00 
2.0700001e+01 0.0000000e+00 0.0000000e+00 
2.0799999e+01 0.0000000e+00 0.0000000e+00 
2.0900000e+01 0.0000000e+00 0.0000000e+00 
2.1000000e+01 0.0000000e+00 0.0000000e+00 
2.1100000e+01 0.0000000e+00 0.0000000e+00 
2.1200001e+01 0.0000000e+00 0.0000000e+00 
2.1299999e+01 0.0000000e+00 0.0000000e+00 
2.1400000e+01 0.0000000e+00 0.0000000e+00 
2.1500000e+01 0.0000000e+00 0.0000000e+00 
2.1600000e+01 0.0000000e+00 0.0000000e+00 
2.1700001e+01 0.0000000e+00 0.0000000e+00 
2.1799999e+01 0.0000000e+00 0.0000000e+00 
2.1900000e+01 0.0000000e+00 0.0000000e+00 
2.2000000e+01 0.0000000e+00 0.0000000e+00 
2.2100000e+01 0.0000000e+00 0.0000000e+00 
2.2200001e+01 0.0000000e+00 0.0000000e+00 
2.2299999e+01 0.0000000e+00 0.0000000e+00 
2.2400000e+01 0.0000000e+00 0.0000000e+00 
2.2500000e+01 0.0000000e+00 0.0000000e+00 
2.2600000e+01 0.0000000e+00 0.0000000e+00 
2.2700001e+01 0.0000000e+00 0.0000000e+00 
2.2799999e+01 0.0000000e+00 0.0000000e+00 
2.2900000e+01 0.0000000e+00 0.0000000e+00 
2.3000000e+01 0.0000000e+00 0.0000000e+00 
2.3100000e+01 0.0000000e+00 0.0000000e+00 
2.3200001e+01 0.0000000e+00 0.0000000e+00 
2.3299999e+01 0.0000000e+00 0.0000000e+00 
2.3400000e+01 0.0000000e+00 0.0000000e+00 
2.3500000e+01 0.0000000e+00 0.0000000e+00 
2.3600000e+01 0.0000000e+00 0.0000000e+00 
2.3700001e+01 0.0000000e+00 0.0000000e+00 
2.3799999e+01 0.0000000e+00 0.0000000e+00 
2.3900000e+01 0.0000000e+00 0.0000000e+00 
2.4000000e+01 0.0000000e+00 0.0000000e+00 
2.4100000e+01 0.0000000e+00 0.0000000e+00 
2.4200001e+01 0.0000000e+00 0.0000000e+00 
2.4299999e+01 0.0000000e+00 0.0000000e+00 
2.4400000e+01 0.0000000e+00 0.0000000e+00 
2.4500000e+01 0.0000000e+00 0.0000000e+00 
2.4600000e+01 0.0000000e+00 0.0000000e+00 
2.4700001e+01 0.0000000e+00 0.0000000e+00 
2.4799999e+01 0.0000000e+00 0.0000000e+00 
2.4900000e+01 0.0000000e+00 0.0000000e+00 

CELLS 250 750
2 0 2
2 2 3
2 3 4
2 4 5
2 5 6
2 6 7
2 7 8
2 8 9
2 9 10
2 10 11
2 11 12
2 12 13
2 13 14
2 14 15
2 15 16
2 16 17
2 17 18
2 18 19
2 19 20
2 20 21
2 21 22
2 22 23
2 23 24
2 24 25
2 25 26
2 26 27
2 27 28
2 28 29
2 29 30
2 30 31
2 31 32
2 32 33
2 33 34
2 34 35
2 35 36
2 36 37
2 37 38
2 38 39
2 39 40
2 40 41
2 41 42
2 42 43
2 43 44
2 44 45
2 45 46
2 46 47
2 47 48
2 48 49
2 49 50
2 50 51
2 51 52
2 52 53
2 53 54
2 54 55
2 55 56
2 56 57
2 57 58
2 58 59
2 59 60
2 60 61
2 61 62
2 62 63
2 63 64
2 64 65
2 65 66
2 66 67
2 67 68
2 68 69
2 69 70
2 70 71
2 71 72
2 72 73
2 73 74
2 74 75
2 75 76
2 76 77
2 77 78
2 78 79
2 79 80
2 80 81
2 81 82
2 82 83
2 83 84
2 84 85
2 85 86
2 86 87
2 87 88
2 88 89
2 89 90
2 90 91
2 91 92
2 92 93
2 93 94
2 94 95
2 95 96
2 96 97
2 97 98
2 98 99
2 99 100
2 100 101
2 101 102
2 102 103
2 103 104
2 104 105
2 105 106
2 106 107
2 107 108
2 108 109
2 109 110
2 110 111
2 111 112
2 112 113
2 113 114
2 114 115
2 115 116
2 116 117
2 117 118
2 118 119
2 119 120
2 120 121
2 121 122
2 122 123
2 123 124
2 124 125
2 125 126
2 126 127
2 127 128
2 128 129
2 129 130
2 130 131
2 131 132
2 132 133
2 133 134
2 134 135
2 135 136
2 136 137
2 137 138
2 138 139
2 139 140
2 140 141
2 141 142
2 142 143
2 143 144
2 144 145
2 145 146
2 146 147
2 147 148
2 148 149
2 149 150
2 150 151
2 151 152
2 152 153
2 153 154
2 154 155
2 155 156
2 156 157
2 157 158
2 158 159
2 159 160
2 160 161
2 161 162
2 162 163
2 163 164
2 164 165
2 165 166
2 166 167
2 167 168
2 168 169
2 169 170
2 170 171
2 171 172
2 172 173
2 173 174
2 174 175
2 175 176
2 176 177
2 177 178
2 178 179
2 179 180
2 180 181
2 181 182
2 182 183
2 183 184
2 184 185
2 185 186
2 186 187
2 187 188
2 188 189
2 189 190
2 190 191
2 191 192
2 192 193
2 193 194
2 194 195
2 195 196
2 196 197
2 197 198
2 198 199
2 199 200
2 200 201
2 201 202
2 202 203
2 203 204
2 204 205
2 205 206
2 206 207
2 207 208
2 208 209
2 209 210
2 210 211
2 211 212
2 212 213
2 213 214
2 214 215
2 215 216
2 216 217
2 217 218
2 218 219
2 219 220
2 220 221
2 221 222
2 222 223
2 223 224
2 224 225
2 225 226
2 226 227
2 227 228
2 228 229
2 229 230
2 230 231
2 231 232
2 232 233
2 233 234
2 234 235
2 235 236
2 236 237
2 237 238
2 238 239
2 239 240
2 240 241
2 241 242
2 242 243
2 243 244
2 244 245
2 245 246
2 246 247
2 247 248
2 248 249
2 249 250
2 250 1

CELL_TYPES 250
3
3
3
3
3
3
3
3
3
3
3
3
3
3
3
3
3
3
3
3
3
3
3
3
3
3
3
3
3
3
3
3
3
3
3
3
3
3
3
3
3
3
3
3
3
3
3
3
3
3
3
3
3
3
3
3
3
3
3
3
3
3
3
3
3
3
3
3
3
3
3
3
3
3
3
3
3
3
3
3
3
3
3
3
3
3
3
3
3
3
3
3
3
3
3
3
3
3
3
3
3
3
3
3
3
3
3
3
3
3
3
3
3
3
3
3
3
3
3
3
3
3
3
3
3
3
3
3
3
3
3
3
3
3
3
3
3
3
3
3
3
3
3
3
3
3
3
3
3
3
3
3
3
3
3
3
3
3
3
3
3
3
3
3
3
3
3
3
3
3
3
3
3
3
3
3
3
3
3
3
3
3
3
3
3
3
3
3
3
3
3
3
3
3
3
3
3
3
3
3
3
3
3
3
3
3
3
3
3
3
3
3
3
3
3
3
3
3
3
3
3
3
3
3
3
3
3
3
3
3
3
3
3
3
3
3
3
3
3
3
3
3
3
3
3
3
3
3
3
3
POINT_DATA 251
FIELD FieldData 1
DISPLACEMENT 3 251  float
0.0000000e+00 0.0000000e+00 0.0000000e+00 
0.0000000e+00 0.0000000e+00 0.0000000e+00 
0.0000000e+00 -5.5451961e-05 0.0000000e+00 
0.0000000e+00 -1.1089858e-04 0.0000000e+00 
0.0000000e+00 -1.6633452e-04 0.0000000e+00 
0.0000000e+00 -2.2175444e-04 0.0000000e+00 
0.0000000e+00 -2.7715298e-04 0.0000000e+00 
0.0000000e+00 -3.3252485e-04 0.0000000e+00 
0.0000000e+00 -3.8786468e-04 0.0000000e+00 
0.0000000e+00 -4.4316711e-04 0.0000000e+00 
0.0000000e+00 -4.9842685e-04 0.0000000e+00 
0.0000000e+00 -5.5363850e-04 0.0000000e+00 
0.0000000e+00 -6.0879678e-04 0.0000000e+00 
0.0000000e+00 -6.6389627e-04 0.0000000e+00 
0.0000000e+00 -7.1893173e-04 0.0000000e+00 
0.0000000e+00 -7.7389774e-04 0.0000000e+00 
0.0000000e+00 -8.2878902e-04 0.0000000e+00 
0.0000000e+00 -8.8360021e-04 0.0000000e+00 
0.0000000e+00 -9.3832589e-04 0.0000000e+00 
0.0000000e+00 -9.9296088e-04 0.0000000e+00 
0.0000000e+00 -1.0474997e-03 0.0000000e+00 
0.0000000e+00 -1.1019370e-03 0.0000000e+00 
0.0000000e+00 -1.1562676e-03 0.0000000e+00 
0.0000000e+00 -1.2104861e-03 0.0000000e+00 
0.0000000e+00 -1.2645870e-03 0.0000000e+00 
0.0000000e+00 -1.3185651e-03 0.0000000e+00 
0.0000000e+00 -1.3724151e-03 0.0000000e+00 
0.0000000e+00 -1.4261316e-03 0.0000000e+00 
0.0000000e+00 -1.4797092e-03 0.0000000e+00 
0.0000000e+00 -1.5331426e-03 0.0000000e+00 
0.0000000e+00 -1.5864266e-03 0.0000000e+00 
0.0000000e+00 -1.6395557e-03 0.0000000e+00 
0.0000000e+00 -1.6925245e-03 0.0000000e+00 
0.0000000e+00 -1.7453280e-03 0.0000000e+00 
0.0000000e+00 -1.7979604e-03 0.0000000e+00 
0.0000000e+00 -1.8504167e-03 0.0000000e+00 
0.0000000e+00 -1.9026913e-03 0.0000000e+00 
0.0000000e+00 -1.9547790e-03 0.0000000e+00 
0.0000000e+00 -2.0066747e-03 0.0000000e+00 
0.0000000e+00 -2.0583726e-03 0.0000000e+00 
0.0000000e+00 -2.1098678e-03 0.0000000e+00 
0.0000000e+00 -2.1611545e-03 0.0000000e+00 
0.0000000e+00 -2.2122276e-03 0.0000000e+00 
0.0000000e+00 -2.2630820e-03 0.0000000e+00 
0.0000000e+00 -2.3137119e-03 0.0000000e+00 
0.0000000e+00 -2.3641123e-03 0.0000000e+00 
0.0000000e+00 -2.4142778e-03 0.0000000e+00 
0.0000000e+00 -2.4642027e-03 0.0000000e+00 
0.0000000e+00 -2.5138822e-03 0.0000000e+00 
0.0000000e+00 -2.5633108e-03 0.0000000e+00 
0.0000000e+00 -2.6124830e-03 0.0000000e+00 
0.0000000e+00 -2.6613935e-03 0.0000000e+00 
0.0000000e+00 -2.7100369e-03 0.0000000e+00 
0.0000000e+00 -2.7584082e-03 0.0000000e+00 
0.0000000e+00 -2.8065017e-03 0.0000000e+00 
0.0000000e+00 -2.8543121e-03 0.0000000e+00 
0.0000000e+00 -2.9018342e-03 0.0000000e+00 
0.0000000e+00 -2.9490627e-03 0.0000000e+00 
0.0000000e+00 -2.9959921e-03 0.0000000e+00 
0.0000000e+00 -3.0426171e-03 0.0000000e+00 
0.0000000e+00 -3.0889323e-03 0.0000000e+00 
0.0000000e+00 -3.1349326e-03 0.0000000e+00 
0.0000000e+00 -3.1806123e-03 0.0000000e+00 
0.0000000e+00 -3.2259666e-03 0.0000000e+00 
0.0000000e+00 -3.2709895e-03 0.0000000e+00 
0.0000000e+00 -3.3156762e-03 0.0000000e+00 
0.0000000e+00 -3.3600209e-03 0.0000000e+00 
0.0000000e+00 -3.4040187e-03 0.0000000e+00 
0.0000000e+00 -3.4476642e-03 0.0000000e+00 
0.0000000e+00 -3.4909516e-03 0.0000000e+00 
0.0000000e+00 -3.5338760e-03 0.0000000e+00 
0.0000000e+00 -3.5764321e-03 0.0000000e+00 
0.0000000e+00 -3.6186143e-03 0.0000000e+00 
0.0000000e+00 -3.6604172e-03 0.0000000e+00 
0.0000000e+00 -3.7018359e-03 0.0000000e+00 
0.0000000e+00 -3.7428646e-03 0.0000000e+00 
0.0000000e+00 -3.7834982e-03 0.0000000e+00 
0.0000000e+00 -3.8237311e-03 0.0000000e+00 
0.0000000e+00 -3.8635584e-03 0.0000000e+00 
0.0000000e+00 -3.9029745e-03 0.0000000e+00 
0.0000000e+00 -3.9419741e-03 0.0000000e+00 
0.0000000e+00 -3.9805518e-03 0.0000000e+00 
0.0000000e+00 -4.0187021e-03 0.0000000e+00 
0.0000000e+00 -4.0564202e-03 0.0000000e+00 
0.0000000e+00 -4.0937006e-03 0.0000000e+00 
0.0000000e+00 -4.1305372e-03 0.0000000e+00 
0.0000000e+00 -4.1669258e-03 0.0000000e+00 
0.0000000e+00 -4.2028599e-03 0.0000000e+00 
0.0000000e+00 -4.2383350e-03 0.0000000e+00 
0.0000000e+00 -4.2733457e-03 0.0000000e+00 
0.0000000e+00 -4.3078866e-03 0.0000000e+00 
0.0000000e+00 -4.3419520e-03 0.0000000e+00 
0.0000000e+00 -4.3755369e-03 0.0000000e+00 
0.0000000e+00 -4.4086357e-03 0.0000000e+00 
0.0000000e+00 -4.4412431e-03 0.0000000e+00 
0.0000000e+00 -4.4733542e-03 0.0000000e+00 
0.0000000e+00 -4.5049633e-03 0.0000000e+00 
0.0000000e+00 -4.5360653e-03 0.0000000e+00 
0.0000000e+00 -4.5666541e-03 0.0000000e+00 
0.0000000e+00 -4.5967256e-03 0.0000000e+00 
0.0000000e+00 -4.6262732e-03 0.0000000e+00 
0.0000000e+00 -4.6552923e-03 0.0000000e+00 
0.0000000e+00 -4.6837777e-03 0.0000000e+00 
0.0000000e+00 -4.7117234e-03 0.0000000e+00 
0.0000000e+00 -4.7391248e-03 0.0000000e+00 
0.0000000e+00 -4.7659758e-03 0.0000000e+00 
0.0000000e+00 -4.7922716e-03 0.0000000e+00 
0.0000000e+00 -4.8180069e-03 0.0000000e+00 
0.0000000e+00 -4.8431759e-03 0.0000000e+00 
0.0000000e+00 -4.8677735e-03 0.0000000e+00 
0.0000000e+00 -4.8917946e-03 0.0000000e+00 
0.0000000e+00 -4.9152332e-03 0.0000000e+00 
0.0000000e+00 -4.9380851e-03 0.0000000e+00 
0.0000000e+00 -4.9603437e-03 0.0000000e+00 
0.0000000e+00 -4.9820044e-03 0.0000000e+00 
0.0000000e+00 -5.0030616e-03 0.0000000e+00 
0.0000000e+00 -5.0235102e-03 0.0000000e+00 
0.0000000e+00 -5.0433450e-03 0.0000000e+00 
0.0000000e+00 -5.0625596e-03 0.0000000e+00 
0.0000000e+00 -5.0811502e-03 0.0000000e+00 
0.0000000e+00 -5.0991103e-03 0.0000000e+00 
0.0000000e+00 -5.1164348e-03 0.0000000e+00 
0.0000000e+00 -5.1331189e-03 0.0000000e+00 
0.0000000e+00 -5.1491563e-03 0.0000000e+00 
0.0000000e+00 -5.1645427e-03 0.0000000e+00 
0.0000000e+00 -5.1792725e-03 0.0000000e+00 
0.0000000e+00 -5.1933397e-03 0.0000000e+00 
0.0000000e+00 -5.2067395e-03 0.0000000e+00 
0.0000000e+00 -5.2194665e-03 0.0000000e+00 
0.0000000e+00 -5.2315150e-03 0.0000000e+00 
0.0000000e+00 -5.2428804e-03 0.0000000e+00 
0.0000000e+00 -5.2535571e-03 0.0000000e+00 
0.0000000e+00 -5.2635390e-03 0.0000000e+00 
0.0000000e+00 -5.2728220e-03 0.0000000e+00 
0.0000000e+00 -5.2813999e-03 0.0000000e+00 
0.0000000e+00 -5.2892673e-03 0.0000000e+00 
0.0000000e+00 -5.2964194e-03 0.0000000e+00 
0.0000000e+00 -5.3028506e-03 0.0000000e+00 
0.0000000e+00 -5.3085554e-03 0.0000000e+00 
0.0000000e+00 -5.3135287e-03 0.0000000e+00 
0.0000000e+00 -5.3177653e-03 0.0000000e+00 
0.0000000e+00 -5.3212596e-03 0.0000000e+00 
0.0000000e+00 -5.3240061e-03 0.0000000e+00 
0.0000000e+00 -5.3260000e-03 0.0000000e+00 
0.0000000e+00 -5.3272354e-03 0.0000000e+00 
0.0000000e+00 -5.3277072e-03 0.0000000e+00 
0.0000000e+00 -5.3274096e-03 0.0000000e+00 
0.0000000e+00 -5.3263386e-03 0.0000000e+00 
0.0000000e+00 -5.3244871e-03 0.0000000e+00 
0.0000000e+00 -5.3218510e-03 0.0000000e+00 
0.0000000e+00 -5.3184247e-03 0.0000000e+00 
0.0000000e+00 -5.3142030e-03 0.0000000e+00 
0.0000000e+00 -5.3091799e-03 0.0000000e+00 
0.0000000e+00 -5.3033503e-03 0.0000000e+00 
0.0000000e+00 -5.2967095e-03 0.0000000e+00 
0.0000000e+00 -5.2892515e-03 0.0000000e+00 
0.0000000e+00 -5.2809711e-03 0.0000000e+00 
0.0000000e+00 -5.2718627e-03 0.0000000e+00 
0.0000000e+00 -5.2619218e-03 0.0000000e+00 
0.0000000e+00 -5.2511422e-03 0.0000000e+00 
0.0000000e+00 -5.2395188e-03 0.0000000e+00 
0.0000000e+00 -5.2270466e-03 0.0000000e+00 
0.0000000e+00 -5.2137203e-03 0.0000000e+00 
0.0000000e+00 -5.1995334e-03 0.0000000e+00 
0.0000000e+00 -5.1844823e-03 0.0000000e+00 
0.0000000e+00 -5.1685604e-03 0.0000000e+00 
0.0000000e+00 -5.1517626e-03 0.0000000e+00 
0.0000000e+00 -5.1340838e-03 0.0000000e+00 
0.0000000e+00 -5.1155188e-03 0.0000000e+00 
0.0000000e+00 -5.0960621e-03 0.0000000e+00 
0.0000000e+00 -5.0757080e-03 0.0000000e+00 
0.0000000e+00 -5.0544515e-03 0.0000000e+00 
0.0000000e+00 -5.0322870e-03 0.0000000e+00 
0.0000000e+00 -5.0092097e-03 0.0000000e+00 
0.0000000e+00 -4.9852137e-03 0.0000000e+00 
0.0000000e+00 -4.9602939e-03 0.0000000e+00 
0.0000000e+00 -4.9344450e-03 0.0000000e+00 
0.0000000e+00 -4.9076620e-03 0.0000000e+00 
0.0000000e+00 -4.8799384e-03 0.0000000e+00 
0.0000000e+00 -4.8512705e-03 0.0000000e+00 
0.0000000e+00 -4.8216516e-03 0.0000000e+00 
0.0000000e+00 -4.7910768e-03 0.0000000e+00 
0.0000000e+00 -4.7595408e-03 0.0000000e+00 
0.0000000e+00 -4.7270386e-03 0.0000000e+00 
0.0000000e+00 -4.6935640e-03 0.0000000e+00 
0.0000000e+00 -4.6591125e-03 0.0000000e+00 
0.0000000e+00 -4.6236785e-03 0.0000000e+00 
0.0000000e+00 -4.5872563e-03 0.0000000e+00 
0.0000000e+00 -4.5498414e-03 0.0000000e+00 
0.0000000e+00 -4.5114276e-03 0.0000000e+00 
0.0000000e+00 -4.4720098e-03 0.0000000e+00 
0.0000000e+00 -4.4315830e-03 0.0000000e+00 
0.0000000e+00 -4.3901415e-03 0.0000000e+00 
0.0000000e+00 -4.3476801e-03 0.0000000e+00 
0.0000000e+00 -4.3041934e-03 0.0000000e+00 
0.0000000e+00 -4.2596757e-03 0.0000000e+00 
0.0000000e+00 -4.2141224e-03 0.0000000e+00 
0.0000000e+00 -4.1675279e-03 0.0000000e+00 
0.0000000e+00 -4.1198870e-03 0.0000000e+00 
0.0000000e+00 -4.0711937e-03 0.0000000e+00 
0.0000000e+00 -4.0214430e-03 0.0000000e+00 
0.0000000e+00 -3.9706300e-03 0.0000000e+00 
0.0000000e+00 -3.9187488e-03 0.0000000e+00 
0.0000000e+00 -3.8657945e-03 0.0000000e+00 
0.0000000e+00 -3.8117613e-03 0.0000000e+00 
0.0000000e+00 -3.7566442e-03 0.0000000e+00 
0.0000000e+00 -3.7004377e-03 0.0000000e+00 
0.0000000e+00 -3.6431365e-03 0.0000000e+00 
0.0000000e+00 -3.5847353e-03 0.0000000e+00 
0.0000000e+00 -3.5252287e-03 0.0000000e+00 
0.0000000e+00 -3.4646112e-03 0.0000000e+00 
0.0000000e+00 -3.4028781e-03 0.0000000e+00 
0.0000000e+00 -3.3400233e-03 0.0000000e+00 
0.0000000e+00 -3.2760417e-03 0.0000000e+00 
0.0000000e+00 -3.2109283e-03 0.0000000e+00 
0.0000000e+00 -3.1446773e-03 0.0000000e+00 
0.0000000e+00 -3.0772835e-03 0.0000000e+00 
0.0000000e+00 -3.0087419e-03 0.0000000e+00 
0.0000000e+00 -2.9390466e-03 0.0000000e+00 
0.0000000e+00 -2.8681925e-03 0.0000000e+00 
0.0000000e+00 -2.7961745e-03 0.0000000e+00 
0.0000000e+00 -2.7229870e-03 0.0000000e+00 
0.0000000e+00 -2.6486246e-03 0.0000000e+00 
0.0000000e+00 -2.5730822e-03 0.0000000e+00 
0.0000000e+00 -2.4963543e-03 0.0000000e+00 
0.0000000e+00 -2.4184354e-03 0.0000000e+00 
0.0000000e+00 -2.3393205e-03 0.0000000e+00 
0.0000000e+00 -2.2590042e-03 0.0000000e+00 
0.0000000e+00 -2.1774808e-03 0.0000000e+00 
0.0000000e+00 -2.0947454e-03 0.0000000e+00 
0.0000000e+00 -2.0107925e-03 0.0000000e+00 
0.0000000e+00 -1.9256169e-03 0.0000000e+00 
0.0000000e+00 -1.8392130e-03 0.0000000e+00 
0.0000000e+00 -1.7515754e-03 0.0000000e+00 
0.0000000e+00 -1.6626990e-03 0.0000000e+00 
0.0000000e+00 -1.5725786e-03 0.0000000e+00 
0.0000000e+00 -1.4812085e-03 0.0000000e+00 
0.0000000e+00 -1.3885834e-03 0.0000000e+00 
0.0000000e+00 -1.2947095e-03 0.0000000e+00 
0.0000000e+00 -1.1996554e-03 0.0000000e+00 
0.0000000e+00 -1.1035120e-03 0.0000000e+00 
0.0000000e+00 -1.0063699e-03 0.0000000e+00 
0.0000000e+00 -9.0832019e-04 0.0000000e+00 
0.0000000e+00 -8.0945337e-04 0.0000000e+00 
0.0000000e+00 -7.0986035e-04 0.0000000e+00 
0.0000000e+00 -6.0963188e-04 0.0000000e+00 
0.0000000e+00 -5.0885871e-04 0.0000000e+00 
0.0000000e+00 -4.0763163e-04 0.0000000e+00 
0.0000000e+00 -3.0604145e-04 0.0000000e+00 
0.0000000e+00 -2.0417893e-04 0.0000000e+00 
0.0000000e+00 -1.0213486e-04 0.0000000e+00 
CELL_DATA 250
FIELD FieldData 0
