# vtk DataFile Version 4.0
vtk output
ASCII
DATASET UNSTRUCTURED_GRID
POINTS 251 float
0.0000000e+00 0.0000000e+00 0.0000000e+00 
2.5000000e+01 0.0000000e+00 0.0000000e+00 
1.0000000e-01 0.0000000e+00 0.0000000e+00 
2.0000000e-01 0.0000000e+00 0.0000000e+00 
3.0000001e-01 0.0000000e+00 0.0000000e+00 
4.0000001e-01 0.0000000e+00 0.0000000e+00 
5.0000000e-01 0.0000000e+00 0.0000000e+00 
6.0000002e-01 0.0000000e+00 0.0000000e+00 
6.9999999e-01 0.0000000e+00 0.0000000e+00 
8.0000001e-01 0.0000000e+00 0.0000000e+00 
8.9999998e-01 0.0000000e+00 0.0000000e+00 
1.0000000e+00 0.0000000e+00 0.0000000e+00 
1.1000000e+00 0.0000000e+00 0.0000000e+00 
1.2000000e+00 0.0000000e+00 0.0000000e+00 
1.3000000e+00 0.0000000e+00 0.0000000e+00 
1.4000000e+00 0.0000000e+00 0.0000000e+00 
1.5000000e+00 0.0000000e+00 0.0000000e+00 
1.6000000e+00 0.0000000e+00 0.0000000e+00 
1.7000000e+00 0.0000000e+00 0.0000000e+00 
1.8000000e+00 0.0000000e+00 0.0000000e+00 
1.9000000e+00 0.0000000e+00 0.0000000e+00 
2.0000000e+00 0.0000000e+00 0.0000000e+00 
2.0999999e+00 0.0000000e+00 0.0000000e+00 
2.2000000e+00 0.0000000e+00 0.0000000e+00 
2.3000000e+00 0.0000000e+00 0.0000000e+00 
2.4000001e+00 0.0000000e+00 0.0000000e+00 
2.5000000e+00 0.0000000e+00 0.0000000e+00 
2.5999999e+00 0.0000000e+00 0.0000000e+00 
2.7000000e+00 0.0000000e+00 0.0000000e+00 
2.8000000e+00 0.0000000e+00 0.0000000e+00 
2.9000001e+00 0.0000000e+00 0.0000000e+00 
3.0000000e+00 0.0000000e+00 0.0000000e+00 
3.0999999e+00 0.0000000e+00 0.0000000e+00 
3.2000000e+00 0.0000000e+00 0.0000000e+00 
3.3000000e+00 0.0000000e+00 0.0000000e+00 
3.4000001e+00 0.0000000e+00 0.0000000e+00 
3.5000000e+00 0.0000000e+00 0.0000000e+00 
3.5999999e+00 0.0000000e+00 0.0000000e+00 
3.7000000e+00 0.0000000e+00 0.0000000e+00 
3.8000000e+00 0.0000000e+00 0.0000000e+00 
3.9000001e+00 0.0000000e+00 0.0000000e+00 
4.0000000e+00 0.0000000e+00 0.0000000e+00 
4.0999999e+00 0.0000000e+00 0.0000000e+00 
4.1999998e+00 0.0000000e+00 0.0000000e+00 
4.3000002e+00 0.0000000e+00 0.0000000e+00 
4.4000001e+00 0.0000000e+00 0.0000000e+00 
4.5000000e+00 0.0000000e+00 0.0000000e+00 
4.5999999e+00 0.0000000e+00 0.0000000e+00 
4.6999998e+00 0.0000000e+00 0.0000000e+00 
4.8000002e+00 0.0000000e+00 0.0000000e+00 
4.9000001e+00 0.0000000e+00 0.0000000e+00 
5.0000000e+00 0.0000000e+00 0.0000000e+00 
5.0999999e+00 0.0000000e+00 0.0000000e+00 
5.1999998e+00 0.0000000e+00 0.0000000e+00 
5.3000002e+00 0.0000000e+00 0.0000000e+00 
5.4000001e+00 0.0000000e+00 0.0000000e+00 
5.5000000e+00 0.0000000e+00 0.0000000e+00 
5.5999999e+00 0.0000000e+00 0.0000000e+00 
5.6999998e+00 0.0000000e+00 0.0000000e+00 
5.8000002e+00 0.0000000e+00 0.0000000e+00 
5.9000001e+00 0.0000000e+00 0.0000000e+00 
6.0000000e+00 0.0000000e+00 0.0000000e+00 
6.0999999e+00 0.0000000e+00 0.0000000e+00 
6.1999998e+00 0.0000000e+00 0.0000000e+00 
6.3000002e+00 0.0000000e+00 0.0000000e+00 
6.4000001e+00 0.0000000e+00 0.0000000e+00 
6.5000000e+00 0.0000000e+00 0.0000000e+00 
6.5999999e+00 0.0000000e+00 0.0000000e+00 
6.6999998e+00 0.0000000e+00 0.0000000e+00 
6.8000002e+00 0.0000000e+00 0.0000000e+00 
6.9000001e+00 0.0000000e+00 0.0000000e+00 
7.0000000e+00 0.0000000e+00 0.0000000e+00 
7.0999999e+00 0.0000000e+00 0.0000000e+00 
7.1999998e+00 0.0000000e+00 0.0000000e+00 
7.3000002e+00 0.0000000e+00 0.0000000e+00 
7.4000001e+00 0.0000000e+00 0.0000000e+00 
7.5000000e+00 0.0000000e+00 0.0000000e+00 
7.5999999e+00 0.0000000e+00 0.0000000e+00 
7.6999998e+00 0.0000000e+00 0.0000000e+00 
7.8000002e+00 0.0000000e+00 0.0000000e+00 
7.9000001e+00 0.0000000e+00 0.0000000e+00 
8.0000000e+00 0.0000000e+00 0.0000000e+00 
8.1000004e+00 0.0000000e+00 0.0000000e+00 
8.1999998e+00 0.0000000e+00 0.0000000e+00 
8.3000002e+00 0.0000000e+00 0.0000000e+00 
8.3999996e+00 0.0000000e+00 0.0000000e+00 
8.5000000e+00 0.0000000e+00 0.0000000e+00 
8.6000004e+00 0.0000000e+00 0.0000000e+00 
8.6999998e+00 0.0000000e+00 0.0000000e+00 
8.8000002e+00 0.0000000e+00 0.0000000e+00 
8.8999996e+00 0.0000000e+00 0.0000000e+00 
9.0000000e+00 0.0000000e+00 0.0000000e+00 
9.1000004e+00 0.0000000e+00 0.0000000e+00 
9.1999998e+00 0.0000000e+00 0.0000000e+00 
9.3000002e+00 0.0000000e+00 0.0000000e+00 
9.3999996e+00 0.0000000e+00 0.0000000e+00 
9.5000000e+00 0.0000000e+00 0.0000000e+00 
9.6000004e+00 0.0000000e+00 0.0000000e+00 
9.6999998e+00 0.0000000e+00 0.0000000e+00 
9.8000002e+00 0.0000000e+00 0.0000000e+00 
9.8999996e+00 0.0000000e+00 0.0000000e+00 
1.0000000e+01 0.0000000e+00 0.0000000e+00 
1.0100000e+01 0.0000000e+00 0.0000000e+00 
1.0200000e+01 0.0000000e+00 0.0000000e+00 
1.0300000e+01 0.0000000e+00 0.0000000e+00 
1.0400000e+01 0.0000000e+00 0.0000000e+00 
1.0500000e+01 0.0000000e+00 0.0000000e+00 
1.0600000e+01 0.0000000e+00 0.0000000e+00 
1.0700000e+01 0.0000000e+00 0.0000000e+00 
1.0800000e+01 0.0000000e+00 0.0000000e+00 
1.0900000e+01 0.0000000e+00 0.0000000e+00 
1.1000000e+01 0.0000000e+00 0.0000000e+00 
1.1100000e+01 0.0000000e+00 0.0000000e+00 
1.1200000e+01 0.0000000e+00 0.0000000e+00 
1.1300000e+01 0.0000000e+00 0.0000000e+00 
1.1400000e+01 0.0000000e+00 0.0000000e+00 
1.1500000e+01 0.0000000e+00 0.0000000e+00 
1.1600000e+01 0.0000000e+00 0.0000000e+00 
1.1700000e+01 0.0000000e+00 0.0000000e+00 
1.1800000e+01 0.0000000e+00 0.0000000e+00 
1.1900000e+01 0.0000000e+00 0.0000000e+00 
1.2000000e+01 0.0000000e+00 0.0000000e+00 
1.2100000e+01 0.0000000e+00 0.0000000e+00 
1.2200000e+01 0.0000000e+00 0.0000000e+00 
1.2300000e+01 0.0000000e+00 0.0000000e+00 
1.2400000e+01 0.0000000e+00 0.0000000e+00 
1.2500000e+01 0.0000000e+00 0.0000000e+00 
1.2600000e+01 0.0000000e+00 0.0000000e+00 
1.2700000e+01 0.0000000e+00 0.0000000e+00 
1.2800000e+01 0.0000000e+00 0.0000000e+00 
1.2900000e+01 0.0000000e+00 0.0000000e+00 
1.3000000e+01 0.0000000e+00 0.0000000e+00 
1.3100000e+01 0.0000000e+00 0.0000000e+00 
1.3200000e+01 0.0000000e+00 0.0000000e+00 
1.3300000e+01 0.0000000e+00 0.0000000e+00 
1.3400000e+01 0.0000000e+00 0.0000000e+00 
1.3500000e+01 0.0000000e+00 0.0000000e+00 
1.3600000e+01 0.0000000e+00 0.0000000e+00 
1.3700000e+01 0.0000000e+00 0.0000000e+00 
1.3800000e+01 0.0000000e+00 0.0000000e+00 
1.3900000e+01 0.0000000e+00 0.0000000e+00 
1.4000000e+01 0.0000000e+00 0.0000000e+00 
1.4100000e+01 0.0000000e+00 0.0000000e+00 
1.4200000e+01 0.0000000e+00 0.0000000e+00 
1.4300000e+01 0.0000000e+00 0.0000000e+00 
1.4400000e+01 0.0000000e+00 0.0000000e+00 
1.4500000e+01 0.0000000e+00 0.0000000e+00 
1.4600000e+01 0.0000000e+00 0.0000000e+00 
1.4700000e+01 0.0000000e+00 0.0000000e+00 
1.4800000e+01 0.0000000e+00 0.0000000e+00 
1.4900000e+01 0.0000000e+00 0.0000000e+00 
1.5000000e+01 0.0000000e+00 0.0000000e+00 
1.5100000e+01 0.0000000e+00 0.0000000e+00 
1.5200000e+01 0.0000000e+00 0.0000000e+00 
1.5300000e+01 0.0000000e+00 0.0000000e+00 
1.5400000e+01 0.0000000e+00 0.0000000e+00 
1.5500000e+01 0.0000000e+00 0.0000000e+00 
1.5600000e+01 0.0000000e+00 0.0000000e+00 
1.5700000e+01 0.0000000e+00 0.0000000e+00 
1.5800000e+01 0.0000000e+00 0.0000000e+00 
1.5900000e+01 0.0000000e+00 0.0000000e+00 
1.6000000e+01 0.0000000e+00 0.0000000e+00 
1.6100000e+01 0.0000000e+00 0.0000000e+00 
1.6200001e+01 0.0000000e+00 0.0000000e+00 
1.6299999e+01 0.0000000e+00 0.0000000e+00 
1.6400000e+01 0.0000000e+00 0.0000000e+00 
1.6500000e+01 0.0000000e+00 0.0000000e+00 
1.6600000e+01 0.0000000e+00 0.0000000e+00 
1.6700001e+01 0.0000000e+00 0.0000000e+00 
1.6799999e+01 0.0000000e+00 0.0000000e+00 
1.6900000e+01 0.0000000e+00 0.0000000e+00 
1.7000000e+01 0.0000000e+00 0.0000000e+00 
1.7100000e+01 0.0000000e+00 0.0000000e+00 
1.7200001e+01 0.0000000e+00 0.0000000e+00 
1.7299999e+01 0.0000000e+00 0.0000000e+00 
1.7400000e+01 0.0000000e+00 0.0000000e+00 
1.7500000e+01 0.0000000e+00 0.0000000e+00 
1.7600000e+01 0.0000000e+00 0.0000000e+00 
1.7700001e+01 0.0000000e+00 0.0000000e+00 
1.7799999e+01 0.0000000e+00 0.0000000e+00 
1.7900000e+01 0.0000000e+00 0.0000000e+00 
1.8000000e+01 0.0000000e+00 0.0000000e+00 
1.8100000e+01 0.0000000e+00 0.0000000e+00 
1.8200001e+01 0.0000000e+00 0.0000000e+00 
1.8299999e+01 0.0000000e+00 0.0000000e+00 
1.8400000e+01 0.0000000e+00 0.0000000e+00 
1.8500000e+01 0.0000000e+00 0.0000000e+00 
1.8600000e+01 0.0000000e+00 0.0000000e+00 
1.8700001e+01 0.0000000e+00 0.0000000e+00 
1.8799999e+01 0.0000000e+00 0.0000000e+00 
1.8900000e+01 0.0000000e+00 0.0000000e+00 
1.9000000e+01 0.0000000e+00 0.0000000e+00 
1.9100000e+01 0.0000000e+00 0.0000000e+00 
1.9200001e+01 0.0000000e+00 0.0000000e+00 
1.9299999e+01 0.0000000e+00 0.0000000e+00 
1.9400000e+01 0.0000000e+00 0.0000000e+00 
1.9500000e+01 0.0000000e+00 0.0000000e+00 
1.9600000e+01 0.0000000e+00 0.0000000e+00 
1.9700001e+01 0.0000000e+00 0.0000000e+00 
1.9799999e+01 0.0000000e+00 0.0000000e+00 
1.9900000e+01 0.0000000e+00 0.0000000e+00 
2.0000000e+01 0.0000000e+00 0.0000000e+00 
2.0100000e+01 0.0000000e+00 0.0000000e+00 
2.0200001e+01 0.0000000e+00 0.0000000e+00 
2.0299999e+01 0.0000000e+00 0.0000000e+00 
2.0400000e+01 0.0000000e+00 0.0000000e+00 
2.0500000e+01 0.0000000e+00 0.0000000e+00 
2.0600000e+01 0.0000000e+00 0.0000000e+00 
2.0700001e+01 0.0000000e+00 0.0000000e+00 
2.0799999e+01 0.0000000e+00 0.0000000e+00 
2.0900000e+01 0.0000000e+00 0.0000000e+00 
2.1000000e+01 0.0000000e+00 0.0000000e+00 
2.1100000e+01 0.0000000e+00 0.0000000e+00 
2.1200001e+01 0.0000000e+00 0.0000000e+00 
2.1299999e+01 0.0000000e+00 0.0000000e+00 
2.1400000e+01 0.0000000e+00 0.0000000e+00 
2.1500000e+01 0.0000000e+00 0.0000000e+00 
2.1600000e+01 0.0000000e+00 0.0000000e+00 
2.1700001e+01 0.0000000e+00 0.0000000e+00 
2.1799999e+01 0.0000000e+00 0.0000000e+00 
2.1900000e+01 0.0000000e+00 0.0000000e+00 
2.2000000e+01 0.0000000e+00 0.0000000e+00 
2.2100000e+01 0.0000000e+00 0.0000000e+00 
2.2200001e+01 0.0000000e+00 0.0000000e+00 
2.2299999e+01 0.0000000e+00 0.0000000e+00 
2.2400000e+01 0.0000000e+00 0.0000000e+00 
2.2500000e+01 0.0000000e+00 0.0000000e+00 
2.2600000e+01 0.0000000e+00 0.0000000e+00 
2.2700001e+01 0.0000000e+00 0.0000000e+00 
2.2799999e+01 0.0000000e+00 0.0000000e+00 
2.2900000e+01 0.0000000e+00 0.0000000e+00 
2.3000000e+01 0.0000000e+00 0.0000000e+00 
2.3100000e+01 0.0000000e+00 0.0000000e+00 
2.3200001e+01 0.0000000e+00 0.0000000e+00 
2.3299999e+01 0.0000000e+00 0.0000000e+00 
2.3400000e+01 0.0000000e+00 0.0000000e+00 
2.3500000e+01 0.0000000e+00 0.0000000e+00 
2.3600000e+01 0.0000000e+00 0.0000000e+00 
2.3700001e+01 0.0000000e+00 0.0000000e+00 
2.3799999e+01 0.0000000e+00 0.0000000e+00 
2.3900000e+01 0.0000000e+00 0.0000000e+00 
2.4000000e+01 0.0000000e+00 0.0000000e+00 
2.4100000e+01 0.0000000e+00 0.0000000e+00 
2.4200001e+01 0.0000000e+00 0.0000000e+00 
2.4299999e+01 0.0000000e+00 0.0000000e+00 
2.4400000e+01 0.0000000e+00 0.0000000e+00 
2.4500000e+01 0.0000000e+00 0.0000000e+00 
2.4600000e+01 0.0000000e+00 0.0000000e+00 
2.4700001e+01 0.0000000e+00 0.0000000e+00 
2.4799999e+01 0.0000000e+00 0.0000000e+00 
2.4900000e+01 0.0000000e+00 0.0000000e+00 

CELLS 250 750
2 0 2
2 2 3
2 3 4
2 4 5
2 5 6
2 6 7
2 7 8
2 8 9
2 9 10
2 10 11
2 11 12
2 12 13
2 13 14
2 14 15
2 15 16
2 16 17
2 17 18
2 18 19
2 19 20
2 20 21
2 21 22
2 22 23
2 23 24
2 24 25
2 25 26
2 26 27
2 27 28
2 28 29
2 29 30
2 30 31
2 31 32
2 32 33
2 33 34
2 34 35
2 35 36
2 36 37
2 37 38
2 38 39
2 39 40
2 40 41
2 41 42
2 42 43
2 43 44
2 44 45
2 45 46
2 46 47
2 47 48
2 48 49
2 49 50
2 50 51
2 51 52
2 52 53
2 53 54
2 54 55
2 55 56
2 56 57
2 57 58
2 58 59
2 59 60
2 60 61
2 61 62
2 62 63
2 63 64
2 64 65
2 65 66
2 66 67
2 67 68
2 68 69
2 69 70
2 70 71
2 71 72
2 72 73
2 73 74
2 74 75
2 75 76
2 76 77
2 77 78
2 78 79
2 79 80
2 80 81
2 81 82
2 82 83
2 83 84
2 84 85
2 85 86
2 86 87
2 87 88
2 88 89
2 89 90
2 90 91
2 91 92
2 92 93
2 93 94
2 94 95
2 95 96
2 96 97
2 97 98
2 98 99
2 99 100
2 100 101
2 101 102
2 102 103
2 103 104
2 104 105
2 105 106
2 106 107
2 107 108
2 108 109
2 109 110
2 110 111
2 111 112
2 112 113
2 113 114
2 114 115
2 115 116
2 116 117
2 117 118
2 118 119
2 119 120
2 120 121
2 121 122
2 122 123
2 123 124
2 124 125
2 125 126
2 126 127
2 127 128
2 128 129
2 129 130
2 130 131
2 131 132
2 132 133
2 133 134
2 134 135
2 135 136
2 136 137
2 137 138
2 138 139
2 139 140
2 140 141
2 141 142
2 142 143
2 143 144
2 144 145
2 145 146
2 146 147
2 147 148
2 148 149
2 149 150
2 150 151
2 151 152
2 152 153
2 153 154
2 154 155
2 155 156
2 156 157
2 157 158
2 158 159
2 159 160
2 160 161
2 161 162
2 162 163
2 163 164
2 164 165
2 165 166
2 166 167
2 167 168
2 168 169
2 169 170
2 170 171
2 171 172
2 172 173
2 173 174
2 174 175
2 175 176
2 176 177
2 177 178
2 178 179
2 179 180
2 180 181
2 181 182
2 182 183
2 183 184
2 184 185
2 185 186
2 186 187
2 187 188
2 188 189
2 189 190
2 190 191
2 191 192
2 192 193
2 193 194
2 194 195
2 195 196
2 196 197
2 197 198
2 198 199
2 199 200
2 200 201
2 201 202
2 202 203
2 203 204
2 204 205
2 205 206
2 206 207
2 207 208
2 208 209
2 209 210
2 210 211
2 211 212
2 212 213
2 213 214
2 214 215
2 215 216
2 216 217
2 217 218
2 218 219
2 219 220
2 220 221
2 221 222
2 222 223
2 223 224
2 224 225
2 225 226
2 226 227
2 227 228
2 228 229
2 229 230
2 230 231
2 231 232
2 232 233
2 233 234
2 234 235
2 235 236
2 236 237
2 237 238
2 238 239
2 239 240
2 240 241
2 241 242
2 242 243
2 243 244
2 244 245
2 245 246
2 246 247
2 247 248
2 248 249
2 249 250
2 250 1

CELL_TYPES 250
3
3
3
3
3
3
3
3
3
3
3
3
3
3
3
3
3
3
3
3
3
3
3
3
3
3
3
3
3
3
3
3
3
3
3
3
3
3
3
3
3
3
3
3
3
3
3
3
3
3
3
3
3
3
3
3
3
3
3
3
3
3
3
3
3
3
3
3
3
3
3
3
3
3
3
3
3
3
3
3
3
3
3
3
3
3
3
3
3
3
3
3
3
3
3
3
3
3
3
3
3
3
3
3
3
3
3
3
3
3
3
3
3
3
3
3
3
3
3
3
3
3
3
3
3
3
3
3
3
3
3
3
3
3
3
3
3
3
3
3
3
3
3
3
3
3
3
3
3
3
3
3
3
3
3
3
3
3
3
3
3
3
3
3
3
3
3
3
3
3
3
3
3
3
3
3
3
3
3
3
3
3
3
3
3
3
3
3
3
3
3
3
3
3
3
3
3
3
3
3
3
3
3
3
3
3
3
3
3
3
3
3
3
3
3
3
3
3
3
3
3
3
3
3
3
3
3
3
3
3
3
3
3
3
3
3
3
3
3
3
3
3
3
3
3
3
3
3
3
3
POINT_DATA 251
FIELD FieldData 1
DISPLACEMENT 3 251  float
0.0000000e+00 0.0000000e+00 0.0000000e+00 
0.0000000e+00 0.0000000e+00 0.0000000e+00 
0.0000000e+00 -3.7081953e-04 0.0000000e+00 
0.0000000e+00 -7.4157497e-04 0.0000000e+00 
0.0000000e+00 -1.1122023e-03 0.0000000e+00 
0.0000000e+00 -1.4826372e-03 0.0000000e+00 
0.0000000e+00 -1.8528160e-03 0.0000000e+00 
0.0000000e+00 -2.2226744e-03 0.0000000e+00 
0.0000000e+00 -2.5921483e-03 0.0000000e+00 
0.0000000e+00 -2.9611734e-03 0.0000000e+00 
0.0000000e+00 -3.3296861e-03 0.0000000e+00 
0.0000000e+00 -3.6976221e-03 0.0000000e+00 
0.0000000e+00 -4.0649171e-03 0.0000000e+00 
0.0000000e+00 -4.4315076e-03 0.0000000e+00 
0.0000000e+00 -4.7973287e-03 0.0000000e+00 
0.0000000e+00 -5.1623173e-03 0.0000000e+00 
0.0000000e+00 -5.5264081e-03 0.0000000e+00 
0.0000000e+00 -5.8895382e-03 0.0000000e+00 
0.0000000e+00 -6.2516429e-03 0.0000000e+00 
0.0000000e+00 -6.6126585e-03 0.0000000e+00 
0.0000000e+00 -6.9725201e-03 0.0000000e+00 
0.0000000e+00 -7.3311646e-03 0.0000000e+00 
0.0000000e+00 -7.6885275e-03 0.0000000e+00 
0.0000000e+00 -8.0445446e-03 0.0000000e+00 
0.0000000e+00 -8.3991522e-03 0.0000000e+00 
0.0000000e+00 -8.7522855e-03 0.0000000e+00 
0.0000000e+00 -9.1038812e-03 0.0000000e+00 
0.0000000e+00 -9.4538750e-03 0.0000000e+00 
0.0000000e+00 -9.8022027e-03 0.0000000e+00 
0.0000000e+00 -1.0148800e-02 0.0000000e+00 
0.0000000e+00 -1.0493604e-02 0.0000000e+00 
0.0000000e+00 -1.0836548e-02 0.0000000e+00 
0.0000000e+00 -1.1177571e-02 0.0000000e+00 
0.0000000e+00 -1.1516607e-02 0.0000000e+00 
0.0000000e+00 -1.1853592e-02 0.0000000e+00 
0.0000000e+00 -1.2188463e-02 0.0000000e+00 
0.0000000e+00 -1.2521156e-02 0.0000000e+00 
0.0000000e+00 -1.2851605e-02 0.0000000e+00 
0.0000000e+00 -1.3179748e-02 0.0000000e+00 
0.0000000e+00 -1.3505519e-02 0.0000000e+00 
0.0000000e+00 -1.3828856e-02 0.0000000e+00 
0.0000000e+00 -1.4149694e-02 0.0000000e+00 
0.0000000e+00 -1.4467968e-02 0.0000000e+00 
0.0000000e+00 -1.4783615e-02 0.0000000e+00 
0.0000000e+00 -1.5096571e-02 0.0000000e+00 
0.0000000e+00 -1.5406772e-02 0.0000000e+00 
0.0000000e+00 -1.5714152e-02 0.0000000e+00 
0.0000000e+00 -1.6018650e-02 0.0000000e+00 
0.0000000e+00 -1.6320199e-02 0.0000000e+00 
0.0000000e+00 -1.6618736e-02 0.0000000e+00 
0.0000000e+00 -1.6914198e-02 0.0000000e+00 
0.0000000e+00 -1.7206522e-02 0.0000000e+00 
0.0000000e+00 -1.7495640e-02 0.0000000e+00 
0.0000000e+00 -1.7781490e-02 0.0000000e+00 
0.0000000e+00 -1.8064007e-02 0.0000000e+00 
0.0000000e+00 -1.8343130e-02 0.0000000e+00 
0.0000000e+00 -1.8618790e-02 0.0000000e+00 
0.0000000e+00 -1.8890928e-02 0.0000000e+00 
0.0000000e+00 -1.9159477e-02 0.0000000e+00 
0.0000000e+00 -1.9424373e-02 0.0000000e+00 
0.0000000e+00 -1.9685553e-02 0.0000000e+00 
0.0000000e+00 -1.9942952e-02 0.0000000e+00 
0.0000000e+00 -2.0196505e-02 0.0000000e+00 
0.0000000e+00 -2.0446151e-02 0.0000000e+00 
0.0000000e+00 -2.0691823e-02 0.0000000e+00 
0.0000000e+00 -2.0933459e-02 0.0000000e+00 
0.0000000e+00 -2.1170992e-02 0.0000000e+00 
0.0000000e+00 -2.1404361e-02 0.0000000e+00 
0.0000000e+00 -2.1633502e-02 0.0000000e+00 
0.0000000e+00 -2.1858348e-02 0.0000000e+00 
0.0000000e+00 -2.2078838e-02 0.0000000e+00 
0.0000000e+00 -2.2294905e-02 0.0000000e+00 
0.0000000e+00 -2.2506487e-02 0.0000000e+00 
0.0000000e+00 -2.2713520e-02 0.0000000e+00 
0.0000000e+00 -2.2915939e-02 0.0000000e+00 
0.0000000e+00 -2.3113679e-02 0.0000000e+00 
0.0000000e+00 -2.3306679e-02 0.0000000e+00 
0.0000000e+00 -2.3494871e-02 0.0000000e+00 
0.0000000e+00 -2.3678195e-02 0.0000000e+00 
0.0000000e+00 -2.3856582e-02 0.0000000e+00 
0.0000000e+00 -2.4029974e-02 0.0000000e+00 
0.0000000e+00 -2.4198303e-02 0.0000000e+00 
0.0000000e+00 -2.4361504e-02 0.0000000e+00 
0.0000000e+00 -2.4519516e-02 0.0000000e+00 
0.0000000e+00 -2.4672274e-02 0.0000000e+00 
0.0000000e+00 -2.4819717e-02 0.0000000e+00 
0.0000000e+00 -2.4961842e-02 0.0000000e+00 
0.0000000e+00 -2.5098680e-02 0.0000000e+00 
0.0000000e+00 -2.5230264e-02 0.0000000e+00 
0.0000000e+00 -2.5356626e-02 0.0000000e+00 
0.0000000e+00 -2.5477797e-02 0.0000000e+00 
0.0000000e+00 -2.5593810e-02 0.0000000e+00 
0.0000000e+00 -2.5704697e-02 0.0000000e+00 
0.0000000e+00 -2.5810489e-02 0.0000000e+00 
0.0000000e+00 -2.5911219e-02 0.0000000e+00 
0.0000000e+00 -2.6006918e-02 0.0000000e+00 
0.0000000e+00 -2.6097620e-02 0.0000000e+00 
0.0000000e+00 -2.6183356e-02 0.0000000e+00 
0.0000000e+00 -2.6264157e-02 0.0000000e+00 
0.0000000e+00 -2.6340056e-02 0.0000000e+00 
0.0000000e+00 -2.6411084e-02 0.0000000e+00 
0.0000000e+00 -2.6477275e-02 0.0000000e+00 
0.0000000e+00 -2.6538661e-02 0.0000000e+00 
0.0000000e+00 -2.6595272e-02 0.0000000e+00 
0.0000000e+00 -2.6647141e-02 0.0000000e+00 
0.0000000e+00 -2.6694302e-02 0.0000000e+00 
0.0000000e+00 -2.6736783e-02 0.0000000e+00 
0.0000000e+00 -2.6774619e-02 0.0000000e+00 
0.0000000e+00 -2.6807841e-02 0.0000000e+00 
0.0000000e+00 -2.6836483e-02 0.0000000e+00 
0.0000000e+00 -2.6860572e-02 0.0000000e+00 
0.0000000e+00 -2.6880147e-02 0.0000000e+00 
0.0000000e+00 -2.6895234e-02 0.0000000e+00 
0.0000000e+00 -2.6905868e-02 0.0000000e+00 
0.0000000e+00 -2.6912080e-02 0.0000000e+00 
0.0000000e+00 -2.6913904e-02 0.0000000e+00 
0.0000000e+00 -2.6911370e-02 0.0000000e+00 
0.0000000e+00 -2.6904510e-02 0.0000000e+00 
0.0000000e+00 -2.6893359e-02 0.0000000e+00 
0.0000000e+00 -2.6877943e-02 0.0000000e+00 
0.0000000e+00 -2.6858300e-02 0.0000000e+00 
0.0000000e+00 -2.6834460e-02 0.0000000e+00 
0.0000000e+00 -2.6806455e-02 0.0000000e+00 
0.0000000e+00 -2.6774315e-02 0.0000000e+00 
0.0000000e+00 -2.6738076e-02 0.0000000e+00 
0.0000000e+00 -2.6697766e-02 0.0000000e+00 
0.0000000e+00 -2.6653420e-02 0.0000000e+00 
0.0000000e+00 -2.6605070e-02 0.0000000e+00 
0.0000000e+00 -2.6552746e-02 0.0000000e+00 
0.0000000e+00 -2.6496481e-02 0.0000000e+00 
0.0000000e+00 -2.6436308e-02 0.0000000e+00 
0.0000000e+00 -2.6372258e-02 0.0000000e+00 
0.0000000e+00 -2.6304362e-02 0.0000000e+00 
0.0000000e+00 -2.6232654e-02 0.0000000e+00 
0.0000000e+00 -2.6157165e-02 0.0000000e+00 
0.0000000e+00 -2.6077928e-02 0.0000000e+00 
0.0000000e+00 -2.5994975e-02 0.0000000e+00 
0.0000000e+00 -2.5908336e-02 0.0000000e+00 
0.0000000e+00 -2.5818044e-02 0.0000000e+00 
0.0000000e+00 -2.5724133e-02 0.0000000e+00 
0.0000000e+00 -2.5626633e-02 0.0000000e+00 
0.0000000e+00 -2.5525577e-02 0.0000000e+00 
0.0000000e+00 -2.5420997e-02 0.0000000e+00 
0.0000000e+00 -2.5312925e-02 0.0000000e+00 
0.0000000e+00 -2.5201391e-02 0.0000000e+00 
0.0000000e+00 -2.5086429e-02 0.0000000e+00 
0.0000000e+00 -2.4968071e-02 0.0000000e+00 
0.0000000e+00 -2.4846349e-02 0.0000000e+00 
0.0000000e+00 -2.4721297e-02 0.0000000e+00 
0.0000000e+00 -2.4592942e-02 0.0000000e+00 
0.0000000e+00 -2.4461320e-02 0.0000000e+00 
0.0000000e+00 -2.4326460e-02 0.0000000e+00 
0.0000000e+00 -2.4188399e-02 0.0000000e+00 
0.0000000e+00 -2.4047164e-02 0.0000000e+00 
0.0000000e+00 -2.3902791e-02 0.0000000e+00 
0.0000000e+00 -2.3755308e-02 0.0000000e+00 
0.0000000e+00 -2.3604751e-02 0.0000000e+00 
0.0000000e+00 -2.3451149e-02 0.0000000e+00 
0.0000000e+00 -2.3294536e-02 0.0000000e+00 
0.0000000e+00 -2.3134943e-02 0.0000000e+00 
0.0000000e+00 -2.2972403e-02 0.0000000e+00 
0.0000000e+00 -2.2806948e-02 0.0000000e+00 
0.0000000e+00 -2.2638608e-02 0.0000000e+00 
0.0000000e+00 -2.2467416e-02 0.0000000e+00 
0.0000000e+00 -2.2293406e-02 0.0000000e+00 
0.0000000e+00 -2.2116607e-02 0.0000000e+00 
0.0000000e+00 -2.1937054e-02 0.0000000e+00 
0.0000000e+00 -2.1754777e-02 0.0000000e+00 
0.0000000e+00 -2.1569809e-02 0.0000000e+00 
0.0000000e+00 -2.1382181e-02 0.0000000e+00 
0.0000000e+00 -2.1191927e-02 0.0000000e+00 
0.0000000e+00 -2.0999076e-02 0.0000000e+00 
0.0000000e+00 -2.0803662e-02 0.0000000e+00 
0.0000000e+00 -2.0605719e-02 0.0000000e+00 
0.0000000e+00 -2.0405274e-02 0.0000000e+00 
0.0000000e+00 -2.0202365e-02 0.0000000e+00 
0.0000000e+00 -1.9997019e-02 0.0000000e+00 
0.0000000e+00 -1.9789269e-02 0.0000000e+00 
0.0000000e+00 -1.9579150e-02 0.0000000e+00 
0.0000000e+00 -1.9366693e-02 0.0000000e+00 
0.0000000e+00 -1.9151926e-02 0.0000000e+00 
0.0000000e+00 -1.8934887e-02 0.0000000e+00 
0.0000000e+00 -1.8715603e-02 0.0000000e+00 
0.0000000e+00 -1.8494111e-02 0.0000000e+00 
0.0000000e+00 -1.8270439e-02 0.0000000e+00 
0.0000000e+00 -1.8044619e-02 0.0000000e+00 
0.0000000e+00 -1.7816685e-02 0.0000000e+00 
0.0000000e+00 -1.7586669e-02 0.0000000e+00 
0.0000000e+00 -1.7354602e-02 0.0000000e+00 
0.0000000e+00 -1.7120518e-02 0.0000000e+00 
0.0000000e+00 -1.6884446e-02 0.0000000e+00 
0.0000000e+00 -1.6646419e-02 0.0000000e+00 
0.0000000e+00 -1.6406471e-02 0.0000000e+00 
0.0000000e+00 -1.6164633e-02 0.0000000e+00 
0.0000000e+00 -1.5920935e-02 0.0000000e+00 
0.0000000e+00 -1.5675411e-02 0.0000000e+00 
0.0000000e+00 -1.5428094e-02 0.0000000e+00 
0.0000000e+00 -1.5179014e-02 0.0000000e+00 
0.0000000e+00 -1.4928204e-02 0.0000000e+00 
0.0000000e+00 -1.4675696e-02 0.0000000e+00 
0.0000000e+00 -1.4421522e-02 0.0000000e+00 
0.0000000e+00 -1.4165713e-02 0.0000000e+00 
0.0000000e+00 -1.3908303e-02 0.0000000e+00 
0.0000000e+00 -1.3649323e-02 0.0000000e+00 
0.0000000e+00 -1.3388805e-02 0.0000000e+00 
0.0000000e+00 -1.3126781e-02 0.0000000e+00 
0.0000000e+00 -1.2863284e-02 0.0000000e+00 
0.0000000e+00 -1.2598344e-02 0.0000000e+00 
0.0000000e+00 -1.2331995e-02 0.0000000e+00 
0.0000000e+00 -1.2064268e-02 0.0000000e+00 
0.0000000e+00 -1.1795196e-02 0.0000000e+00 
0.0000000e+00 -1.1524810e-02 0.0000000e+00 
0.0000000e+00 -1.1253142e-02 0.0000000e+00 
0.0000000e+00 -1.0980224e-02 0.0000000e+00 
0.0000000e+00 -1.0706089e-02 0.0000000e+00 
0.0000000e+00 -1.0430769e-02 0.0000000e+00 
0.0000000e+00 -1.0154295e-02 0.0000000e+00 
0.0000000e+00 -9.8767001e-03 0.0000000e+00 
0.0000000e+00 -9.5980149e-03 0.0000000e+00 
0.0000000e+00 -9.3182735e-03 0.0000000e+00 
0.0000000e+00 -9.0375068e-03 0.0000000e+00 
0.0000000e+00 -8.7557463e-03 0.0000000e+00 
0.0000000e+00 -8.4730247e-03 0.0000000e+00 
0.0000000e+00 -8.1893736e-03 0.0000000e+00 
0.0000000e+00 -7.9048257e-03 0.0000000e+00 
0.0000000e+00 -7.6194131e-03 0.0000000e+00 
0.0000000e+00 -7.3331674e-03 0.0000000e+00 
0.0000000e+00 -7.0461202e-03 0.0000000e+00 
0.0000000e+00 -6.7583043e-03 0.0000000e+00 
0.0000000e+00 -6.4697517e-03 0.0000000e+00 
0.0000000e+00 -6.1804941e-03 0.0000000e+00 
0.0000000e+00 -5.8905636e-03 0.0000000e+00 
0.0000000e+00 -5.5999923e-03 0.0000000e+00 
0.0000000e+00 -5.3088125e-03 0.0000000e+00 
0.0000000e+00 -5.0170557e-03 0.0000000e+00 
0.0000000e+00 -4.7247540e-03 0.0000000e+00 
0.0000000e+00 -4.4319401e-03 0.0000000e+00 
0.0000000e+00 -4.1386453e-03 0.0000000e+00 
0.0000000e+00 -3.8449022e-03 0.0000000e+00 
0.0000000e+00 -3.5507425e-03 0.0000000e+00 
0.0000000e+00 -3.2561983e-03 0.0000000e+00 
0.0000000e+00 -2.9613017e-03 0.0000000e+00 
0.0000000e+00 -2.6660846e-03 0.0000000e+00 
0.0000000e+00 -2.3705792e-03 0.0000000e+00 
0.0000000e+00 -2.0748174e-03 0.0000000e+00 
0.0000000e+00 -1.7788315e-03 0.0000000e+00 
0.0000000e+00 -1.4826533e-03 0.0000000e+00 
0.0000000e+00 -1.1863149e-03 0.0000000e+00 
0.0000000e+00 -8.8984828e-04 0.0000000e+00 
0.0000000e+00 -5.9328560e-04 0.0000000e+00 
0.0000000e+00 -2.9665881e-04 0.0000000e+00 
CELL_DATA 250
FIELD FieldData 0
