# vtk DataFile Version 4.0
vtk output
ASCII
DATASET UNSTRUCTURED_GRID
POINTS 251 float
0.0000000e+00 0.0000000e+00 0.0000000e+00 
2.5000000e+01 0.0000000e+00 0.0000000e+00 
1.0000000e-01 0.0000000e+00 0.0000000e+00 
2.0000000e-01 0.0000000e+00 0.0000000e+00 
3.0000001e-01 0.0000000e+00 0.0000000e+00 
4.0000001e-01 0.0000000e+00 0.0000000e+00 
5.0000000e-01 0.0000000e+00 0.0000000e+00 
6.0000002e-01 0.0000000e+00 0.0000000e+00 
6.9999999e-01 0.0000000e+00 0.0000000e+00 
8.0000001e-01 0.0000000e+00 0.0000000e+00 
8.9999998e-01 0.0000000e+00 0.0000000e+00 
1.0000000e+00 0.0000000e+00 0.0000000e+00 
1.1000000e+00 0.0000000e+00 0.0000000e+00 
1.2000000e+00 0.0000000e+00 0.0000000e+00 
1.3000000e+00 0.0000000e+00 0.0000000e+00 
1.4000000e+00 0.0000000e+00 0.0000000e+00 
1.5000000e+00 0.0000000e+00 0.0000000e+00 
1.6000000e+00 0.0000000e+00 0.0000000e+00 
1.7000000e+00 0.0000000e+00 0.0000000e+00 
1.8000000e+00 0.0000000e+00 0.0000000e+00 
1.9000000e+00 0.0000000e+00 0.0000000e+00 
2.0000000e+00 0.0000000e+00 0.0000000e+00 
2.0999999e+00 0.0000000e+00 0.0000000e+00 
2.2000000e+00 0.0000000e+00 0.0000000e+00 
2.3000000e+00 0.0000000e+00 0.0000000e+00 
2.4000001e+00 0.0000000e+00 0.0000000e+00 
2.5000000e+00 0.0000000e+00 0.0000000e+00 
2.5999999e+00 0.0000000e+00 0.0000000e+00 
2.7000000e+00 0.0000000e+00 0.0000000e+00 
2.8000000e+00 0.0000000e+00 0.0000000e+00 
2.9000001e+00 0.0000000e+00 0.0000000e+00 
3.0000000e+00 0.0000000e+00 0.0000000e+00 
3.0999999e+00 0.0000000e+00 0.0000000e+00 
3.2000000e+00 0.0000000e+00 0.0000000e+00 
3.3000000e+00 0.0000000e+00 0.0000000e+00 
3.4000001e+00 0.0000000e+00 0.0000000e+00 
3.5000000e+00 0.0000000e+00 0.0000000e+00 
3.5999999e+00 0.0000000e+00 0.0000000e+00 
3.7000000e+00 0.0000000e+00 0.0000000e+00 
3.8000000e+00 0.0000000e+00 0.0000000e+00 
3.9000001e+00 0.0000000e+00 0.0000000e+00 
4.0000000e+00 0.0000000e+00 0.0000000e+00 
4.0999999e+00 0.0000000e+00 0.0000000e+00 
4.1999998e+00 0.0000000e+00 0.0000000e+00 
4.3000002e+00 0.0000000e+00 0.0000000e+00 
4.4000001e+00 0.0000000e+00 0.0000000e+00 
4.5000000e+00 0.0000000e+00 0.0000000e+00 
4.5999999e+00 0.0000000e+00 0.0000000e+00 
4.6999998e+00 0.0000000e+00 0.0000000e+00 
4.8000002e+00 0.0000000e+00 0.0000000e+00 
4.9000001e+00 0.0000000e+00 0.0000000e+00 
5.0000000e+00 0.0000000e+00 0.0000000e+00 
5.0999999e+00 0.0000000e+00 0.0000000e+00 
5.1999998e+00 0.0000000e+00 0.0000000e+00 
5.3000002e+00 0.0000000e+00 0.0000000e+00 
5.4000001e+00 0.0000000e+00 0.0000000e+00 
5.5000000e+00 0.0000000e+00 0.0000000e+00 
5.5999999e+00 0.0000000e+00 0.0000000e+00 
5.6999998e+00 0.0000000e+00 0.0000000e+00 
5.8000002e+00 0.0000000e+00 0.0000000e+00 
5.9000001e+00 0.0000000e+00 0.0000000e+00 
6.0000000e+00 0.0000000e+00 0.0000000e+00 
6.0999999e+00 0.0000000e+00 0.0000000e+00 
6.1999998e+00 0.0000000e+00 0.0000000e+00 
6.3000002e+00 0.0000000e+00 0.0000000e+00 
6.4000001e+00 0.0000000e+00 0.0000000e+00 
6.5000000e+00 0.0000000e+00 0.0000000e+00 
6.5999999e+00 0.0000000e+00 0.0000000e+00 
6.6999998e+00 0.0000000e+00 0.0000000e+00 
6.8000002e+00 0.0000000e+00 0.0000000e+00 
6.9000001e+00 0.0000000e+00 0.0000000e+00 
7.0000000e+00 0.0000000e+00 0.0000000e+00 
7.0999999e+00 0.0000000e+00 0.0000000e+00 
7.1999998e+00 0.0000000e+00 0.0000000e+00 
7.3000002e+00 0.0000000e+00 0.0000000e+00 
7.4000001e+00 0.0000000e+00 0.0000000e+00 
7.5000000e+00 0.0000000e+00 0.0000000e+00 
7.5999999e+00 0.0000000e+00 0.0000000e+00 
7.6999998e+00 0.0000000e+00 0.0000000e+00 
7.8000002e+00 0.0000000e+00 0.0000000e+00 
7.9000001e+00 0.0000000e+00 0.0000000e+00 
8.0000000e+00 0.0000000e+00 0.0000000e+00 
8.1000004e+00 0.0000000e+00 0.0000000e+00 
8.1999998e+00 0.0000000e+00 0.0000000e+00 
8.3000002e+00 0.0000000e+00 0.0000000e+00 
8.3999996e+00 0.0000000e+00 0.0000000e+00 
8.5000000e+00 0.0000000e+00 0.0000000e+00 
8.6000004e+00 0.0000000e+00 0.0000000e+00 
8.6999998e+00 0.0000000e+00 0.0000000e+00 
8.8000002e+00 0.0000000e+00 0.0000000e+00 
8.8999996e+00 0.0000000e+00 0.0000000e+00 
9.0000000e+00 0.0000000e+00 0.0000000e+00 
9.1000004e+00 0.0000000e+00 0.0000000e+00 
9.1999998e+00 0.0000000e+00 0.0000000e+00 
9.3000002e+00 0.0000000e+00 0.0000000e+00 
9.3999996e+00 0.0000000e+00 0.0000000e+00 
9.5000000e+00 0.0000000e+00 0.0000000e+00 
9.6000004e+00 0.0000000e+00 0.0000000e+00 
9.6999998e+00 0.0000000e+00 0.0000000e+00 
9.8000002e+00 0.0000000e+00 0.0000000e+00 
9.8999996e+00 0.0000000e+00 0.0000000e+00 
1.0000000e+01 0.0000000e+00 0.0000000e+00 
1.0100000e+01 0.0000000e+00 0.0000000e+00 
1.0200000e+01 0.0000000e+00 0.0000000e+00 
1.0300000e+01 0.0000000e+00 0.0000000e+00 
1.0400000e+01 0.0000000e+00 0.0000000e+00 
1.0500000e+01 0.0000000e+00 0.0000000e+00 
1.0600000e+01 0.0000000e+00 0.0000000e+00 
1.0700000e+01 0.0000000e+00 0.0000000e+00 
1.0800000e+01 0.0000000e+00 0.0000000e+00 
1.0900000e+01 0.0000000e+00 0.0000000e+00 
1.1000000e+01 0.0000000e+00 0.0000000e+00 
1.1100000e+01 0.0000000e+00 0.0000000e+00 
1.1200000e+01 0.0000000e+00 0.0000000e+00 
1.1300000e+01 0.0000000e+00 0.0000000e+00 
1.1400000e+01 0.0000000e+00 0.0000000e+00 
1.1500000e+01 0.0000000e+00 0.0000000e+00 
1.1600000e+01 0.0000000e+00 0.0000000e+00 
1.1700000e+01 0.0000000e+00 0.0000000e+00 
1.1800000e+01 0.0000000e+00 0.0000000e+00 
1.1900000e+01 0.0000000e+00 0.0000000e+00 
1.2000000e+01 0.0000000e+00 0.0000000e+00 
1.2100000e+01 0.0000000e+00 0.0000000e+00 
1.2200000e+01 0.0000000e+00 0.0000000e+00 
1.2300000e+01 0.0000000e+00 0.0000000e+00 
1.2400000e+01 0.0000000e+00 0.0000000e+00 
1.2500000e+01 0.0000000e+00 0.0000000e+00 
1.2600000e+01 0.0000000e+00 0.0000000e+00 
1.2700000e+01 0.0000000e+00 0.0000000e+00 
1.2800000e+01 0.0000000e+00 0.0000000e+00 
1.2900000e+01 0.0000000e+00 0.0000000e+00 
1.3000000e+01 0.0000000e+00 0.0000000e+00 
1.3100000e+01 0.0000000e+00 0.0000000e+00 
1.3200000e+01 0.0000000e+00 0.0000000e+00 
1.3300000e+01 0.0000000e+00 0.0000000e+00 
1.3400000e+01 0.0000000e+00 0.0000000e+00 
1.3500000e+01 0.0000000e+00 0.0000000e+00 
1.3600000e+01 0.0000000e+00 0.0000000e+00 
1.3700000e+01 0.0000000e+00 0.0000000e+00 
1.3800000e+01 0.0000000e+00 0.0000000e+00 
1.3900000e+01 0.0000000e+00 0.0000000e+00 
1.4000000e+01 0.0000000e+00 0.0000000e+00 
1.4100000e+01 0.0000000e+00 0.0000000e+00 
1.4200000e+01 0.0000000e+00 0.0000000e+00 
1.4300000e+01 0.0000000e+00 0.0000000e+00 
1.4400000e+01 0.0000000e+00 0.0000000e+00 
1.4500000e+01 0.0000000e+00 0.0000000e+00 
1.4600000e+01 0.0000000e+00 0.0000000e+00 
1.4700000e+01 0.0000000e+00 0.0000000e+00 
1.4800000e+01 0.0000000e+00 0.0000000e+00 
1.4900000e+01 0.0000000e+00 0.0000000e+00 
1.5000000e+01 0.0000000e+00 0.0000000e+00 
1.5100000e+01 0.0000000e+00 0.0000000e+00 
1.5200000e+01 0.0000000e+00 0.0000000e+00 
1.5300000e+01 0.0000000e+00 0.0000000e+00 
1.5400000e+01 0.0000000e+00 0.0000000e+00 
1.5500000e+01 0.0000000e+00 0.0000000e+00 
1.5600000e+01 0.0000000e+00 0.0000000e+00 
1.5700000e+01 0.0000000e+00 0.0000000e+00 
1.5800000e+01 0.0000000e+00 0.0000000e+00 
1.5900000e+01 0.0000000e+00 0.0000000e+00 
1.6000000e+01 0.0000000e+00 0.0000000e+00 
1.6100000e+01 0.0000000e+00 0.0000000e+00 
1.6200001e+01 0.0000000e+00 0.0000000e+00 
1.6299999e+01 0.0000000e+00 0.0000000e+00 
1.6400000e+01 0.0000000e+00 0.0000000e+00 
1.6500000e+01 0.0000000e+00 0.0000000e+00 
1.6600000e+01 0.0000000e+00 0.0000000e+00 
1.6700001e+01 0.0000000e+00 0.0000000e+00 
1.6799999e+01 0.0000000e+00 0.0000000e+00 
1.6900000e+01 0.0000000e+00 0.0000000e+00 
1.7000000e+01 0.0000000e+00 0.0000000e+00 
1.7100000e+01 0.0000000e+00 0.0000000e+00 
1.7200001e+01 0.0000000e+00 0.0000000e+00 
1.7299999e+01 0.0000000e+00 0.0000000e+00 
1.7400000e+01 0.0000000e+00 0.0000000e+00 
1.7500000e+01 0.0000000e+00 0.0000000e+00 
1.7600000e+01 0.0000000e+00 0.0000000e+00 
1.7700001e+01 0.0000000e+00 0.0000000e+00 
1.7799999e+01 0.0000000e+00 0.0000000e+00 
1.7900000e+01 0.0000000e+00 0.0000000e+00 
1.8000000e+01 0.0000000e+00 0.0000000e+00 
1.8100000e+01 0.0000000e+00 0.0000000e+00 
1.8200001e+01 0.0000000e+00 0.0000000e+00 
1.8299999e+01 0.0000000e+00 0.0000000e+00 
1.8400000e+01 0.0000000e+00 0.0000000e+00 
1.8500000e+01 0.0000000e+00 0.0000000e+00 
1.8600000e+01 0.0000000e+00 0.0000000e+00 
1.8700001e+01 0.0000000e+00 0.0000000e+00 
1.8799999e+01 0.0000000e+00 0.0000000e+00 
1.8900000e+01 0.0000000e+00 0.0000000e+00 
1.9000000e+01 0.0000000e+00 0.0000000e+00 
1.9100000e+01 0.0000000e+00 0.0000000e+00 
1.9200001e+01 0.0000000e+00 0.0000000e+00 
1.9299999e+01 0.0000000e+00 0.0000000e+00 
1.9400000e+01 0.0000000e+00 0.0000000e+00 
1.9500000e+01 0.0000000e+00 0.0000000e+00 
1.9600000e+01 0.0000000e+00 0.0000000e+00 
1.9700001e+01 0.0000000e+00 0.0000000e+00 
1.9799999e+01 0.0000000e+00 0.0000000e+00 
1.9900000e+01 0.0000000e+00 0.0000000e+00 
2.0000000e+01 0.0000000e+00 0.0000000e+00 
2.0100000e+01 0.0000000e+00 0.0000000e+00 
2.0200001e+01 0.0000000e+00 0.0000000e+00 
2.0299999e+01 0.0000000e+00 0.0000000e+00 
2.0400000e+01 0.0000000e+00 0.0000000e+00 
2.0500000e+01 0.0000000e+00 0.0000000e+00 
2.0600000e+01 0.0000000e+00 0.0000000e+00 
2.0700001e+01 0.0000000e+00 0.0000000e+00 
2.0799999e+01 0.0000000e+00 0.0000000e+00 
2.0900000e+01 0.0000000e+00 0.0000000e+00 
2.1000000e+01 0.0000000e+00 0.0000000e+00 
2.1100000e+01 0.0000000e+00 0.0000000e+00 
2.1200001e+01 0.0000000e+00 0.0000000e+00 
2.1299999e+01 0.0000000e+00 0.0000000e+00 
2.1400000e+01 0.0000000e+00 0.0000000e+00 
2.1500000e+01 0.0000000e+00 0.0000000e+00 
2.1600000e+01 0.0000000e+00 0.0000000e+00 
2.1700001e+01 0.0000000e+00 0.0000000e+00 
2.1799999e+01 0.0000000e+00 0.0000000e+00 
2.1900000e+01 0.0000000e+00 0.0000000e+00 
2.2000000e+01 0.0000000e+00 0.0000000e+00 
2.2100000e+01 0.0000000e+00 0.0000000e+00 
2.2200001e+01 0.0000000e+00 0.0000000e+00 
2.2299999e+01 0.0000000e+00 0.0000000e+00 
2.2400000e+01 0.0000000e+00 0.0000000e+00 
2.2500000e+01 0.0000000e+00 0.0000000e+00 
2.2600000e+01 0.0000000e+00 0.0000000e+00 
2.2700001e+01 0.0000000e+00 0.0000000e+00 
2.2799999e+01 0.0000000e+00 0.0000000e+00 
2.2900000e+01 0.0000000e+00 0.0000000e+00 
2.3000000e+01 0.0000000e+00 0.0000000e+00 
2.3100000e+01 0.0000000e+00 0.0000000e+00 
2.3200001e+01 0.0000000e+00 0.0000000e+00 
2.3299999e+01 0.0000000e+00 0.0000000e+00 
2.3400000e+01 0.0000000e+00 0.0000000e+00 
2.3500000e+01 0.0000000e+00 0.0000000e+00 
2.3600000e+01 0.0000000e+00 0.0000000e+00 
2.3700001e+01 0.0000000e+00 0.0000000e+00 
2.3799999e+01 0.0000000e+00 0.0000000e+00 
2.3900000e+01 0.0000000e+00 0.0000000e+00 
2.4000000e+01 0.0000000e+00 0.0000000e+00 
2.4100000e+01 0.0000000e+00 0.0000000e+00 
2.4200001e+01 0.0000000e+00 0.0000000e+00 
2.4299999e+01 0.0000000e+00 0.0000000e+00 
2.4400000e+01 0.0000000e+00 0.0000000e+00 
2.4500000e+01 0.0000000e+00 0.0000000e+00 
2.4600000e+01 0.0000000e+00 0.0000000e+00 
2.4700001e+01 0.0000000e+00 0.0000000e+00 
2.4799999e+01 0.0000000e+00 0.0000000e+00 
2.4900000e+01 0.0000000e+00 0.0000000e+00 

CELLS 250 750
2 0 2
2 2 3
2 3 4
2 4 5
2 5 6
2 6 7
2 7 8
2 8 9
2 9 10
2 10 11
2 11 12
2 12 13
2 13 14
2 14 15
2 15 16
2 16 17
2 17 18
2 18 19
2 19 20
2 20 21
2 21 22
2 22 23
2 23 24
2 24 25
2 25 26
2 26 27
2 27 28
2 28 29
2 29 30
2 30 31
2 31 32
2 32 33
2 33 34
2 34 35
2 35 36
2 36 37
2 37 38
2 38 39
2 39 40
2 40 41
2 41 42
2 42 43
2 43 44
2 44 45
2 45 46
2 46 47
2 47 48
2 48 49
2 49 50
2 50 51
2 51 52
2 52 53
2 53 54
2 54 55
2 55 56
2 56 57
2 57 58
2 58 59
2 59 60
2 60 61
2 61 62
2 62 63
2 63 64
2 64 65
2 65 66
2 66 67
2 67 68
2 68 69
2 69 70
2 70 71
2 71 72
2 72 73
2 73 74
2 74 75
2 75 76
2 76 77
2 77 78
2 78 79
2 79 80
2 80 81
2 81 82
2 82 83
2 83 84
2 84 85
2 85 86
2 86 87
2 87 88
2 88 89
2 89 90
2 90 91
2 91 92
2 92 93
2 93 94
2 94 95
2 95 96
2 96 97
2 97 98
2 98 99
2 99 100
2 100 101
2 101 102
2 102 103
2 103 104
2 104 105
2 105 106
2 106 107
2 107 108
2 108 109
2 109 110
2 110 111
2 111 112
2 112 113
2 113 114
2 114 115
2 115 116
2 116 117
2 117 118
2 118 119
2 119 120
2 120 121
2 121 122
2 122 123
2 123 124
2 124 125
2 125 126
2 126 127
2 127 128
2 128 129
2 129 130
2 130 131
2 131 132
2 132 133
2 133 134
2 134 135
2 135 136
2 136 137
2 137 138
2 138 139
2 139 140
2 140 141
2 141 142
2 142 143
2 143 144
2 144 145
2 145 146
2 146 147
2 147 148
2 148 149
2 149 150
2 150 151
2 151 152
2 152 153
2 153 154
2 154 155
2 155 156
2 156 157
2 157 158
2 158 159
2 159 160
2 160 161
2 161 162
2 162 163
2 163 164
2 164 165
2 165 166
2 166 167
2 167 168
2 168 169
2 169 170
2 170 171
2 171 172
2 172 173
2 173 174
2 174 175
2 175 176
2 176 177
2 177 178
2 178 179
2 179 180
2 180 181
2 181 182
2 182 183
2 183 184
2 184 185
2 185 186
2 186 187
2 187 188
2 188 189
2 189 190
2 190 191
2 191 192
2 192 193
2 193 194
2 194 195
2 195 196
2 196 197
2 197 198
2 198 199
2 199 200
2 200 201
2 201 202
2 202 203
2 203 204
2 204 205
2 205 206
2 206 207
2 207 208
2 208 209
2 209 210
2 210 211
2 211 212
2 212 213
2 213 214
2 214 215
2 215 216
2 216 217
2 217 218
2 218 219
2 219 220
2 220 221
2 221 222
2 222 223
2 223 224
2 224 225
2 225 226
2 226 227
2 227 228
2 228 229
2 229 230
2 230 231
2 231 232
2 232 233
2 233 234
2 234 235
2 235 236
2 236 237
2 237 238
2 238 239
2 239 240
2 240 241
2 241 242
2 242 243
2 243 244
2 244 245
2 245 246
2 246 247
2 247 248
2 248 249
2 249 250
2 250 1

CELL_TYPES 250
3
3
3
3
3
3
3
3
3
3
3
3
3
3
3
3
3
3
3
3
3
3
3
3
3
3
3
3
3
3
3
3
3
3
3
3
3
3
3
3
3
3
3
3
3
3
3
3
3
3
3
3
3
3
3
3
3
3
3
3
3
3
3
3
3
3
3
3
3
3
3
3
3
3
3
3
3
3
3
3
3
3
3
3
3
3
3
3
3
3
3
3
3
3
3
3
3
3
3
3
3
3
3
3
3
3
3
3
3
3
3
3
3
3
3
3
3
3
3
3
3
3
3
3
3
3
3
3
3
3
3
3
3
3
3
3
3
3
3
3
3
3
3
3
3
3
3
3
3
3
3
3
3
3
3
3
3
3
3
3
3
3
3
3
3
3
3
3
3
3
3
3
3
3
3
3
3
3
3
3
3
3
3
3
3
3
3
3
3
3
3
3
3
3
3
3
3
3
3
3
3
3
3
3
3
3
3
3
3
3
3
3
3
3
3
3
3
3
3
3
3
3
3
3
3
3
3
3
3
3
3
3
3
3
3
3
3
3
3
3
3
3
3
3
3
3
3
3
3
3
POINT_DATA 251
FIELD FieldData 1
DISPLACEMENT 3 251  float
0.0000000e+00 0.0000000e+00 0.0000000e+00 
0.0000000e+00 0.0000000e+00 0.0000000e+00 
0.0000000e+00 -1.6223555e-04 0.0000000e+00 
0.0000000e+00 -3.2445506e-04 0.0000000e+00 
0.0000000e+00 -4.8664256e-04 0.0000000e+00 
0.0000000e+00 -6.4878195e-04 0.0000000e+00 
0.0000000e+00 -8.1085734e-04 0.0000000e+00 
0.0000000e+00 -9.7285258e-04 0.0000000e+00 
0.0000000e+00 -1.1347517e-03 0.0000000e+00 
0.0000000e+00 -1.2965386e-03 0.0000000e+00 
0.0000000e+00 -1.4581975e-03 0.0000000e+00 
0.0000000e+00 -1.6197121e-03 0.0000000e+00 
0.0000000e+00 -1.7810666e-03 0.0000000e+00 
0.0000000e+00 -1.9422448e-03 0.0000000e+00 
0.0000000e+00 -2.1032309e-03 0.0000000e+00 
0.0000000e+00 -2.2640086e-03 0.0000000e+00 
0.0000000e+00 -2.4245621e-03 0.0000000e+00 
0.0000000e+00 -2.5848751e-03 0.0000000e+00 
0.0000000e+00 -2.7449320e-03 0.0000000e+00 
0.0000000e+00 -2.9047164e-03 0.0000000e+00 
0.0000000e+00 -3.0642126e-03 0.0000000e+00 
0.0000000e+00 -3.2234045e-03 0.0000000e+00 
0.0000000e+00 -3.3822758e-03 0.0000000e+00 
0.0000000e+00 -3.5408107e-03 0.0000000e+00 
0.0000000e+00 -3.6989932e-03 0.0000000e+00 
0.0000000e+00 -3.8568072e-03 0.0000000e+00 
0.0000000e+00 -4.0142369e-03 0.0000000e+00 
0.0000000e+00 -4.1712662e-03 0.0000000e+00 
0.0000000e+00 -4.3278784e-03 0.0000000e+00 
0.0000000e+00 -4.4840588e-03 0.0000000e+00 
0.0000000e+00 -4.6397899e-03 0.0000000e+00 
0.0000000e+00 -4.7950568e-03 0.0000000e+00 
0.0000000e+00 -4.9498435e-03 0.0000000e+00 
0.0000000e+00 -5.1041329e-03 0.0000000e+00 
0.0000000e+00 -5.2579101e-03 0.0000000e+00 
0.0000000e+00 -5.4111583e-03 0.0000000e+00 
0.0000000e+00 -5.5638622e-03 0.0000000e+00 
0.0000000e+00 -5.7160053e-03 0.0000000e+00 
0.0000000e+00 -5.8675716e-03 0.0000000e+00 
0.0000000e+00 -6.0185450e-03 0.0000000e+00 
0.0000000e+00 -6.1689098e-03 0.0000000e+00 
0.0000000e+00 -6.3186497e-03 0.0000000e+00 
0.0000000e+00 -6.4677494e-03 0.0000000e+00 
0.0000000e+00 -6.6161915e-03 0.0000000e+00 
0.0000000e+00 -6.7639612e-03 0.0000000e+00 
0.0000000e+00 -6.9110421e-03 0.0000000e+00 
0.0000000e+00 -7.0574176e-03 0.0000000e+00 
0.0000000e+00 -7.2030728e-03 0.0000000e+00 
0.0000000e+00 -7.3479908e-03 0.0000000e+00 
0.0000000e+00 -7.4921562e-03 0.0000000e+00 
0.0000000e+00 -7.6355524e-03 0.0000000e+00 
0.0000000e+00 -7.7781635e-03 0.0000000e+00 
0.0000000e+00 -7.9199737e-03 0.0000000e+00 
0.0000000e+00 -8.0609666e-03 0.0000000e+00 
0.0000000e+00 -8.2011269e-03 0.0000000e+00 
0.0000000e+00 -8.3404379e-03 0.0000000e+00 
0.0000000e+00 -8.4788846e-03 0.0000000e+00 
0.0000000e+00 -8.6164493e-03 0.0000000e+00 
0.0000000e+00 -8.7531172e-03 0.0000000e+00 
0.0000000e+00 -8.8888714e-03 0.0000000e+00 
0.0000000e+00 -9.0236971e-03 0.0000000e+00 
0.0000000e+00 -9.1575775e-03 0.0000000e+00 
0.0000000e+00 -9.2904968e-03 0.0000000e+00 
0.0000000e+00 -9.4224392e-03 0.0000000e+00 
0.0000000e+00 -9.5533878e-03 0.0000000e+00 
0.0000000e+00 -9.6833268e-03 0.0000000e+00 
0.0000000e+00 -9.8122414e-03 0.0000000e+00 
0.0000000e+00 -9.9401139e-03 0.0000000e+00 
0.0000000e+00 -1.0066930e-02 0.0000000e+00 
0.0000000e+00 -1.0192672e-02 0.0000000e+00 
0.0000000e+00 -1.0317325e-02 0.0000000e+00 
0.0000000e+00 -1.0440873e-02 0.0000000e+00 
0.0000000e+00 -1.0563299e-02 0.0000000e+00 
0.0000000e+00 -1.0684588e-02 0.0000000e+00 
0.0000000e+00 -1.0804723e-02 0.0000000e+00 
0.0000000e+00 -1.0923689e-02 0.0000000e+00 
0.0000000e+00 -1.1041469e-02 0.0000000e+00 
0.0000000e+00 -1.1158048e-02 0.0000000e+00 
0.0000000e+00 -1.1273409e-02 0.0000000e+00 
0.0000000e+00 -1.1387537e-02 0.0000000e+00 
0.0000000e+00 -1.1500415e-02 0.0000000e+00 
0.0000000e+00 -1.1612029e-02 0.0000000e+00 
0.0000000e+00 -1.1722360e-02 0.0000000e+00 
0.0000000e+00 -1.1831393e-02 0.0000000e+00 
0.0000000e+00 -1.1939113e-02 0.0000000e+00 
0.0000000e+00 -1.2045504e-02 0.0000000e+00 
0.0000000e+00 -1.2150548e-02 0.0000000e+00 
0.0000000e+00 -1.2254231e-02 0.0000000e+00 
0.0000000e+00 -1.2356536e-02 0.0000000e+00 
0.0000000e+00 -1.2457448e-02 0.0000000e+00 
0.0000000e+00 -1.2556950e-02 0.0000000e+00 
0.0000000e+00 -1.2655025e-02 0.0000000e+00 
0.0000000e+00 -1.2751659e-02 0.0000000e+00 
0.0000000e+00 -1.2846836e-02 0.0000000e+00 
0.0000000e+00 -1.2940539e-02 0.0000000e+00 
0.0000000e+00 -1.3032751e-02 0.0000000e+00 
0.0000000e+00 -1.3123458e-02 0.0000000e+00 
0.0000000e+00 -1.3212644e-02 0.0000000e+00 
0.0000000e+00 -1.3300290e-02 0.0000000e+00 
0.0000000e+00 -1.3386384e-02 0.0000000e+00 
0.0000000e+00 -1.3470907e-02 0.0000000e+00 
0.0000000e+00 -1.3553844e-02 0.0000000e+00 
0.0000000e+00 -1.3635179e-02 0.0000000e+00 
0.0000000e+00 -1.3714897e-02 0.0000000e+00 
0.0000000e+00 -1.3792980e-02 0.0000000e+00 
0.0000000e+00 -1.3869412e-02 0.0000000e+00 
0.0000000e+00 -1.3944180e-02 0.0000000e+00 
0.0000000e+00 -1.4017264e-02 0.0000000e+00 
0.0000000e+00 -1.4088651e-02 0.0000000e+00 
0.0000000e+00 -1.4158324e-02 0.0000000e+00 
0.0000000e+00 -1.4226267e-02 0.0000000e+00 
0.0000000e+00 -1.4292464e-02 0.0000000e+00 
0.0000000e+00 -1.4356897e-02 0.0000000e+00 
0.0000000e+00 -1.4419554e-02 0.0000000e+00 
0.0000000e+00 -1.4480416e-02 0.0000000e+00 
0.0000000e+00 -1.4539467e-02 0.0000000e+00 
0.0000000e+00 -1.4596692e-02 0.0000000e+00 
0.0000000e+00 -1.4652075e-02 0.0000000e+00 
0.0000000e+00 -1.4705600e-02 0.0000000e+00 
0.0000000e+00 -1.4757250e-02 0.0000000e+00 
0.0000000e+00 -1.4807011e-02 0.0000000e+00 
0.0000000e+00 -1.4854864e-02 0.0000000e+00 
0.0000000e+00 -1.4900796e-02 0.0000000e+00 
0.0000000e+00 -1.4944789e-02 0.0000000e+00 
0.0000000e+00 -1.4986827e-02 0.0000000e+00 
0.0000000e+00 -1.5026895e-02 0.0000000e+00 
0.0000000e+00 -1.5064977e-02 0.0000000e+00 
0.0000000e+00 -1.5101056e-02 0.0000000e+00 
0.0000000e+00 -1.5135117e-02 0.0000000e+00 
0.0000000e+00 -1.5167142e-02 0.0000000e+00 
0.0000000e+00 -1.5197118e-02 0.0000000e+00 
0.0000000e+00 -1.5225027e-02 0.0000000e+00 
0.0000000e+00 -1.5250853e-02 0.0000000e+00 
0.0000000e+00 -1.5274581e-02 0.0000000e+00 
0.0000000e+00 -1.5296195e-02 0.0000000e+00 
0.0000000e+00 -1.5315677e-02 0.0000000e+00 
0.0000000e+00 -1.5333013e-02 0.0000000e+00 
0.0000000e+00 -1.5348186e-02 0.0000000e+00 
0.0000000e+00 -1.5361181e-02 0.0000000e+00 
0.0000000e+00 -1.5371980e-02 0.0000000e+00 
0.0000000e+00 -1.5380570e-02 0.0000000e+00 
0.0000000e+00 -1.5386932e-02 0.0000000e+00 
0.0000000e+00 -1.5391051e-02 0.0000000e+00 
0.0000000e+00 -1.5392912e-02 0.0000000e+00 
0.0000000e+00 -1.5392498e-02 0.0000000e+00 
0.0000000e+00 -1.5389793e-02 0.0000000e+00 
0.0000000e+00 -1.5384781e-02 0.0000000e+00 
0.0000000e+00 -1.5377446e-02 0.0000000e+00 
0.0000000e+00 -1.5367772e-02 0.0000000e+00 
0.0000000e+00 -1.5355744e-02 0.0000000e+00 
0.0000000e+00 -1.5341344e-02 0.0000000e+00 
0.0000000e+00 -1.5324558e-02 0.0000000e+00 
0.0000000e+00 -1.5305368e-02 0.0000000e+00 
0.0000000e+00 -1.5283761e-02 0.0000000e+00 
0.0000000e+00 -1.5259717e-02 0.0000000e+00 
0.0000000e+00 -1.5233222e-02 0.0000000e+00 
0.0000000e+00 -1.5204261e-02 0.0000000e+00 
0.0000000e+00 -1.5172816e-02 0.0000000e+00 
0.0000000e+00 -1.5138872e-02 0.0000000e+00 
0.0000000e+00 -1.5102413e-02 0.0000000e+00 
0.0000000e+00 -1.5063424e-02 0.0000000e+00 
0.0000000e+00 -1.5021887e-02 0.0000000e+00 
0.0000000e+00 -1.4977786e-02 0.0000000e+00 
0.0000000e+00 -1.4931107e-02 0.0000000e+00 
0.0000000e+00 -1.4881832e-02 0.0000000e+00 
0.0000000e+00 -1.4829946e-02 0.0000000e+00 
0.0000000e+00 -1.4775433e-02 0.0000000e+00 
0.0000000e+00 -1.4718276e-02 0.0000000e+00 
0.0000000e+00 -1.4658460e-02 0.0000000e+00 
0.0000000e+00 -1.4595970e-02 0.0000000e+00 
0.0000000e+00 -1.4530786e-02 0.0000000e+00 
0.0000000e+00 -1.4462897e-02 0.0000000e+00 
0.0000000e+00 -1.4392284e-02 0.0000000e+00 
0.0000000e+00 -1.4318931e-02 0.0000000e+00 
0.0000000e+00 -1.4242823e-02 0.0000000e+00 
0.0000000e+00 -1.4163944e-02 0.0000000e+00 
0.0000000e+00 -1.4082277e-02 0.0000000e+00 
0.0000000e+00 -1.3997806e-02 0.0000000e+00 
0.0000000e+00 -1.3910516e-02 0.0000000e+00 
0.0000000e+00 -1.3820391e-02 0.0000000e+00 
0.0000000e+00 -1.3727414e-02 0.0000000e+00 
0.0000000e+00 -1.3631570e-02 0.0000000e+00 
0.0000000e+00 -1.3532842e-02 0.0000000e+00 
0.0000000e+00 -1.3431214e-02 0.0000000e+00 
0.0000000e+00 -1.3326671e-02 0.0000000e+00 
0.0000000e+00 -1.3219196e-02 0.0000000e+00 
0.0000000e+00 -1.3108773e-02 0.0000000e+00 
0.0000000e+00 -1.2995387e-02 0.0000000e+00 
0.0000000e+00 -1.2879021e-02 0.0000000e+00 
0.0000000e+00 -1.2759659e-02 0.0000000e+00 
0.0000000e+00 -1.2637286e-02 0.0000000e+00 
0.0000000e+00 -1.2511885e-02 0.0000000e+00 
0.0000000e+00 -1.2383441e-02 0.0000000e+00 
0.0000000e+00 -1.2251936e-02 0.0000000e+00 
0.0000000e+00 -1.2117355e-02 0.0000000e+00 
0.0000000e+00 -1.1979682e-02 0.0000000e+00 
0.0000000e+00 -1.1838903e-02 0.0000000e+00 
0.0000000e+00 -1.1694998e-02 0.0000000e+00 
0.0000000e+00 -1.1547955e-02 0.0000000e+00 
0.0000000e+00 -1.1397755e-02 0.0000000e+00 
0.0000000e+00 -1.1244383e-02 0.0000000e+00 
0.0000000e+00 -1.1087823e-02 0.0000000e+00 
0.0000000e+00 -1.0928059e-02 0.0000000e+00 
0.0000000e+00 -1.0765076e-02 0.0000000e+00 
0.0000000e+00 -1.0598856e-02 0.0000000e+00 
0.0000000e+00 -1.0429384e-02 0.0000000e+00 
0.0000000e+00 -1.0256644e-02 0.0000000e+00 
0.0000000e+00 -1.0080621e-02 0.0000000e+00 
0.0000000e+00 -9.9012963e-03 0.0000000e+00 
0.0000000e+00 -9.7186565e-03 0.0000000e+00 
0.0000000e+00 -9.5326891e-03 0.0000000e+00 
0.0000000e+00 -9.3434379e-03 0.0000000e+00 
0.0000000e+00 -9.1509828e-03 0.0000000e+00 
0.0000000e+00 -8.9554042e-03 0.0000000e+00 
0.0000000e+00 -8.7567810e-03 0.0000000e+00 
0.0000000e+00 -8.5551953e-03 0.0000000e+00 
0.0000000e+00 -8.3507253e-03 0.0000000e+00 
0.0000000e+00 -8.1434520e-03 0.0000000e+00 
0.0000000e+00 -7.9334555e-03 0.0000000e+00 
0.0000000e+00 -7.7208155e-03 0.0000000e+00 
0.0000000e+00 -7.5056120e-03 0.0000000e+00 
0.0000000e+00 -7.2879260e-03 0.0000000e+00 
0.0000000e+00 -7.0678368e-03 0.0000000e+00 
0.0000000e+00 -6.8454244e-03 0.0000000e+00 
0.0000000e+00 -6.6207699e-03 0.0000000e+00 
0.0000000e+00 -6.3939523e-03 0.0000000e+00 
0.0000000e+00 -6.1650523e-03 0.0000000e+00 
0.0000000e+00 -5.9341495e-03 0.0000000e+00 
0.0000000e+00 -5.7013244e-03 0.0000000e+00 
0.0000000e+00 -5.4666572e-03 0.0000000e+00 
0.0000000e+00 -5.2302275e-03 0.0000000e+00 
0.0000000e+00 -4.9921162e-03 0.0000000e+00 
0.0000000e+00 -4.7524027e-03 0.0000000e+00 
0.0000000e+00 -4.5111673e-03 0.0000000e+00 
0.0000000e+00 -4.2684898e-03 0.0000000e+00 
0.0000000e+00 -4.0244511e-03 0.0000000e+00 
0.0000000e+00 -3.7791305e-03 0.0000000e+00 
0.0000000e+00 -3.5326085e-03 0.0000000e+00 
0.0000000e+00 -3.2849652e-03 0.0000000e+00 
0.0000000e+00 -3.0362806e-03 0.0000000e+00 
0.0000000e+00 -2.7866347e-03 0.0000000e+00 
0.0000000e+00 -2.5361078e-03 0.0000000e+00 
0.0000000e+00 -2.2847797e-03 0.0000000e+00 
0.0000000e+00 -2.0327310e-03 0.0000000e+00 
0.0000000e+00 -1.7800414e-03 0.0000000e+00 
0.0000000e+00 -1.5267910e-03 0.0000000e+00 
0.0000000e+00 -1.2730601e-03 0.0000000e+00 
0.0000000e+00 -1.0189287e-03 0.0000000e+00 
0.0000000e+00 -7.6447683e-04 0.0000000e+00 
0.0000000e+00 -5.0978473e-04 0.0000000e+00 
0.0000000e+00 -2.5493241e-04 0.0000000e+00 
CELL_DATA 250
FIELD FieldData 0
