# vtk DataFile Version 4.0
vtk output
ASCII
DATASET UNSTRUCTURED_GRID
POINTS 251 float
0.0000000e+00 0.0000000e+00 0.0000000e+00 
2.5000000e+01 0.0000000e+00 0.0000000e+00 
1.0000000e-01 0.0000000e+00 0.0000000e+00 
2.0000000e-01 0.0000000e+00 0.0000000e+00 
3.0000001e-01 0.0000000e+00 0.0000000e+00 
4.0000001e-01 0.0000000e+00 0.0000000e+00 
5.0000000e-01 0.0000000e+00 0.0000000e+00 
6.0000002e-01 0.0000000e+00 0.0000000e+00 
6.9999999e-01 0.0000000e+00 0.0000000e+00 
8.0000001e-01 0.0000000e+00 0.0000000e+00 
8.9999998e-01 0.0000000e+00 0.0000000e+00 
1.0000000e+00 0.0000000e+00 0.0000000e+00 
1.1000000e+00 0.0000000e+00 0.0000000e+00 
1.2000000e+00 0.0000000e+00 0.0000000e+00 
1.3000000e+00 0.0000000e+00 0.0000000e+00 
1.4000000e+00 0.0000000e+00 0.0000000e+00 
1.5000000e+00 0.0000000e+00 0.0000000e+00 
1.6000000e+00 0.0000000e+00 0.0000000e+00 
1.7000000e+00 0.0000000e+00 0.0000000e+00 
1.8000000e+00 0.0000000e+00 0.0000000e+00 
1.9000000e+00 0.0000000e+00 0.0000000e+00 
2.0000000e+00 0.0000000e+00 0.0000000e+00 
2.0999999e+00 0.0000000e+00 0.0000000e+00 
2.2000000e+00 0.0000000e+00 0.0000000e+00 
2.3000000e+00 0.0000000e+00 0.0000000e+00 
2.4000001e+00 0.0000000e+00 0.0000000e+00 
2.5000000e+00 0.0000000e+00 0.0000000e+00 
2.5999999e+00 0.0000000e+00 0.0000000e+00 
2.7000000e+00 0.0000000e+00 0.0000000e+00 
2.8000000e+00 0.0000000e+00 0.0000000e+00 
2.9000001e+00 0.0000000e+00 0.0000000e+00 
3.0000000e+00 0.0000000e+00 0.0000000e+00 
3.0999999e+00 0.0000000e+00 0.0000000e+00 
3.2000000e+00 0.0000000e+00 0.0000000e+00 
3.3000000e+00 0.0000000e+00 0.0000000e+00 
3.4000001e+00 0.0000000e+00 0.0000000e+00 
3.5000000e+00 0.0000000e+00 0.0000000e+00 
3.5999999e+00 0.0000000e+00 0.0000000e+00 
3.7000000e+00 0.0000000e+00 0.0000000e+00 
3.8000000e+00 0.0000000e+00 0.0000000e+00 
3.9000001e+00 0.0000000e+00 0.0000000e+00 
4.0000000e+00 0.0000000e+00 0.0000000e+00 
4.0999999e+00 0.0000000e+00 0.0000000e+00 
4.1999998e+00 0.0000000e+00 0.0000000e+00 
4.3000002e+00 0.0000000e+00 0.0000000e+00 
4.4000001e+00 0.0000000e+00 0.0000000e+00 
4.5000000e+00 0.0000000e+00 0.0000000e+00 
4.5999999e+00 0.0000000e+00 0.0000000e+00 
4.6999998e+00 0.0000000e+00 0.0000000e+00 
4.8000002e+00 0.0000000e+00 0.0000000e+00 
4.9000001e+00 0.0000000e+00 0.0000000e+00 
5.0000000e+00 0.0000000e+00 0.0000000e+00 
5.0999999e+00 0.0000000e+00 0.0000000e+00 
5.1999998e+00 0.0000000e+00 0.0000000e+00 
5.3000002e+00 0.0000000e+00 0.0000000e+00 
5.4000001e+00 0.0000000e+00 0.0000000e+00 
5.5000000e+00 0.0000000e+00 0.0000000e+00 
5.5999999e+00 0.0000000e+00 0.0000000e+00 
5.6999998e+00 0.0000000e+00 0.0000000e+00 
5.8000002e+00 0.0000000e+00 0.0000000e+00 
5.9000001e+00 0.0000000e+00 0.0000000e+00 
6.0000000e+00 0.0000000e+00 0.0000000e+00 
6.0999999e+00 0.0000000e+00 0.0000000e+00 
6.1999998e+00 0.0000000e+00 0.0000000e+00 
6.3000002e+00 0.0000000e+00 0.0000000e+00 
6.4000001e+00 0.0000000e+00 0.0000000e+00 
6.5000000e+00 0.0000000e+00 0.0000000e+00 
6.5999999e+00 0.0000000e+00 0.0000000e+00 
6.6999998e+00 0.0000000e+00 0.0000000e+00 
6.8000002e+00 0.0000000e+00 0.0000000e+00 
6.9000001e+00 0.0000000e+00 0.0000000e+00 
7.0000000e+00 0.0000000e+00 0.0000000e+00 
7.0999999e+00 0.0000000e+00 0.0000000e+00 
7.1999998e+00 0.0000000e+00 0.0000000e+00 
7.3000002e+00 0.0000000e+00 0.0000000e+00 
7.4000001e+00 0.0000000e+00 0.0000000e+00 
7.5000000e+00 0.0000000e+00 0.0000000e+00 
7.5999999e+00 0.0000000e+00 0.0000000e+00 
7.6999998e+00 0.0000000e+00 0.0000000e+00 
7.8000002e+00 0.0000000e+00 0.0000000e+00 
7.9000001e+00 0.0000000e+00 0.0000000e+00 
8.0000000e+00 0.0000000e+00 0.0000000e+00 
8.1000004e+00 0.0000000e+00 0.0000000e+00 
8.1999998e+00 0.0000000e+00 0.0000000e+00 
8.3000002e+00 0.0000000e+00 0.0000000e+00 
8.3999996e+00 0.0000000e+00 0.0000000e+00 
8.5000000e+00 0.0000000e+00 0.0000000e+00 
8.6000004e+00 0.0000000e+00 0.0000000e+00 
8.6999998e+00 0.0000000e+00 0.0000000e+00 
8.8000002e+00 0.0000000e+00 0.0000000e+00 
8.8999996e+00 0.0000000e+00 0.0000000e+00 
9.0000000e+00 0.0000000e+00 0.0000000e+00 
9.1000004e+00 0.0000000e+00 0.0000000e+00 
9.1999998e+00 0.0000000e+00 0.0000000e+00 
9.3000002e+00 0.0000000e+00 0.0000000e+00 
9.3999996e+00 0.0000000e+00 0.0000000e+00 
9.5000000e+00 0.0000000e+00 0.0000000e+00 
9.6000004e+00 0.0000000e+00 0.0000000e+00 
9.6999998e+00 0.0000000e+00 0.0000000e+00 
9.8000002e+00 0.0000000e+00 0.0000000e+00 
9.8999996e+00 0.0000000e+00 0.0000000e+00 
1.0000000e+01 0.0000000e+00 0.0000000e+00 
1.0100000e+01 0.0000000e+00 0.0000000e+00 
1.0200000e+01 0.0000000e+00 0.0000000e+00 
1.0300000e+01 0.0000000e+00 0.0000000e+00 
1.0400000e+01 0.0000000e+00 0.0000000e+00 
1.0500000e+01 0.0000000e+00 0.0000000e+00 
1.0600000e+01 0.0000000e+00 0.0000000e+00 
1.0700000e+01 0.0000000e+00 0.0000000e+00 
1.0800000e+01 0.0000000e+00 0.0000000e+00 
1.0900000e+01 0.0000000e+00 0.0000000e+00 
1.1000000e+01 0.0000000e+00 0.0000000e+00 
1.1100000e+01 0.0000000e+00 0.0000000e+00 
1.1200000e+01 0.0000000e+00 0.0000000e+00 
1.1300000e+01 0.0000000e+00 0.0000000e+00 
1.1400000e+01 0.0000000e+00 0.0000000e+00 
1.1500000e+01 0.0000000e+00 0.0000000e+00 
1.1600000e+01 0.0000000e+00 0.0000000e+00 
1.1700000e+01 0.0000000e+00 0.0000000e+00 
1.1800000e+01 0.0000000e+00 0.0000000e+00 
1.1900000e+01 0.0000000e+00 0.0000000e+00 
1.2000000e+01 0.0000000e+00 0.0000000e+00 
1.2100000e+01 0.0000000e+00 0.0000000e+00 
1.2200000e+01 0.0000000e+00 0.0000000e+00 
1.2300000e+01 0.0000000e+00 0.0000000e+00 
1.2400000e+01 0.0000000e+00 0.0000000e+00 
1.2500000e+01 0.0000000e+00 0.0000000e+00 
1.2600000e+01 0.0000000e+00 0.0000000e+00 
1.2700000e+01 0.0000000e+00 0.0000000e+00 
1.2800000e+01 0.0000000e+00 0.0000000e+00 
1.2900000e+01 0.0000000e+00 0.0000000e+00 
1.3000000e+01 0.0000000e+00 0.0000000e+00 
1.3100000e+01 0.0000000e+00 0.0000000e+00 
1.3200000e+01 0.0000000e+00 0.0000000e+00 
1.3300000e+01 0.0000000e+00 0.0000000e+00 
1.3400000e+01 0.0000000e+00 0.0000000e+00 
1.3500000e+01 0.0000000e+00 0.0000000e+00 
1.3600000e+01 0.0000000e+00 0.0000000e+00 
1.3700000e+01 0.0000000e+00 0.0000000e+00 
1.3800000e+01 0.0000000e+00 0.0000000e+00 
1.3900000e+01 0.0000000e+00 0.0000000e+00 
1.4000000e+01 0.0000000e+00 0.0000000e+00 
1.4100000e+01 0.0000000e+00 0.0000000e+00 
1.4200000e+01 0.0000000e+00 0.0000000e+00 
1.4300000e+01 0.0000000e+00 0.0000000e+00 
1.4400000e+01 0.0000000e+00 0.0000000e+00 
1.4500000e+01 0.0000000e+00 0.0000000e+00 
1.4600000e+01 0.0000000e+00 0.0000000e+00 
1.4700000e+01 0.0000000e+00 0.0000000e+00 
1.4800000e+01 0.0000000e+00 0.0000000e+00 
1.4900000e+01 0.0000000e+00 0.0000000e+00 
1.5000000e+01 0.0000000e+00 0.0000000e+00 
1.5100000e+01 0.0000000e+00 0.0000000e+00 
1.5200000e+01 0.0000000e+00 0.0000000e+00 
1.5300000e+01 0.0000000e+00 0.0000000e+00 
1.5400000e+01 0.0000000e+00 0.0000000e+00 
1.5500000e+01 0.0000000e+00 0.0000000e+00 
1.5600000e+01 0.0000000e+00 0.0000000e+00 
1.5700000e+01 0.0000000e+00 0.0000000e+00 
1.5800000e+01 0.0000000e+00 0.0000000e+00 
1.5900000e+01 0.0000000e+00 0.0000000e+00 
1.6000000e+01 0.0000000e+00 0.0000000e+00 
1.6100000e+01 0.0000000e+00 0.0000000e+00 
1.6200001e+01 0.0000000e+00 0.0000000e+00 
1.6299999e+01 0.0000000e+00 0.0000000e+00 
1.6400000e+01 0.0000000e+00 0.0000000e+00 
1.6500000e+01 0.0000000e+00 0.0000000e+00 
1.6600000e+01 0.0000000e+00 0.0000000e+00 
1.6700001e+01 0.0000000e+00 0.0000000e+00 
1.6799999e+01 0.0000000e+00 0.0000000e+00 
1.6900000e+01 0.0000000e+00 0.0000000e+00 
1.7000000e+01 0.0000000e+00 0.0000000e+00 
1.7100000e+01 0.0000000e+00 0.0000000e+00 
1.7200001e+01 0.0000000e+00 0.0000000e+00 
1.7299999e+01 0.0000000e+00 0.0000000e+00 
1.7400000e+01 0.0000000e+00 0.0000000e+00 
1.7500000e+01 0.0000000e+00 0.0000000e+00 
1.7600000e+01 0.0000000e+00 0.0000000e+00 
1.7700001e+01 0.0000000e+00 0.0000000e+00 
1.7799999e+01 0.0000000e+00 0.0000000e+00 
1.7900000e+01 0.0000000e+00 0.0000000e+00 
1.8000000e+01 0.0000000e+00 0.0000000e+00 
1.8100000e+01 0.0000000e+00 0.0000000e+00 
1.8200001e+01 0.0000000e+00 0.0000000e+00 
1.8299999e+01 0.0000000e+00 0.0000000e+00 
1.8400000e+01 0.0000000e+00 0.0000000e+00 
1.8500000e+01 0.0000000e+00 0.0000000e+00 
1.8600000e+01 0.0000000e+00 0.0000000e+00 
1.8700001e+01 0.0000000e+00 0.0000000e+00 
1.8799999e+01 0.0000000e+00 0.0000000e+00 
1.8900000e+01 0.0000000e+00 0.0000000e+00 
1.9000000e+01 0.0000000e+00 0.0000000e+00 
1.9100000e+01 0.0000000e+00 0.0000000e+00 
1.9200001e+01 0.0000000e+00 0.0000000e+00 
1.9299999e+01 0.0000000e+00 0.0000000e+00 
1.9400000e+01 0.0000000e+00 0.0000000e+00 
1.9500000e+01 0.0000000e+00 0.0000000e+00 
1.9600000e+01 0.0000000e+00 0.0000000e+00 
1.9700001e+01 0.0000000e+00 0.0000000e+00 
1.9799999e+01 0.0000000e+00 0.0000000e+00 
1.9900000e+01 0.0000000e+00 0.0000000e+00 
2.0000000e+01 0.0000000e+00 0.0000000e+00 
2.0100000e+01 0.0000000e+00 0.0000000e+00 
2.0200001e+01 0.0000000e+00 0.0000000e+00 
2.0299999e+01 0.0000000e+00 0.0000000e+00 
2.0400000e+01 0.0000000e+00 0.0000000e+00 
2.0500000e+01 0.0000000e+00 0.0000000e+00 
2.0600000e+01 0.0000000e+00 0.0000000e+00 
2.0700001e+01 0.0000000e+00 0.0000000e+00 
2.0799999e+01 0.0000000e+00 0.0000000e+00 
2.0900000e+01 0.0000000e+00 0.0000000e+00 
2.1000000e+01 0.0000000e+00 0.0000000e+00 
2.1100000e+01 0.0000000e+00 0.0000000e+00 
2.1200001e+01 0.0000000e+00 0.0000000e+00 
2.1299999e+01 0.0000000e+00 0.0000000e+00 
2.1400000e+01 0.0000000e+00 0.0000000e+00 
2.1500000e+01 0.0000000e+00 0.0000000e+00 
2.1600000e+01 0.0000000e+00 0.0000000e+00 
2.1700001e+01 0.0000000e+00 0.0000000e+00 
2.1799999e+01 0.0000000e+00 0.0000000e+00 
2.1900000e+01 0.0000000e+00 0.0000000e+00 
2.2000000e+01 0.0000000e+00 0.0000000e+00 
2.2100000e+01 0.0000000e+00 0.0000000e+00 
2.2200001e+01 0.0000000e+00 0.0000000e+00 
2.2299999e+01 0.0000000e+00 0.0000000e+00 
2.2400000e+01 0.0000000e+00 0.0000000e+00 
2.2500000e+01 0.0000000e+00 0.0000000e+00 
2.2600000e+01 0.0000000e+00 0.0000000e+00 
2.2700001e+01 0.0000000e+00 0.0000000e+00 
2.2799999e+01 0.0000000e+00 0.0000000e+00 
2.2900000e+01 0.0000000e+00 0.0000000e+00 
2.3000000e+01 0.0000000e+00 0.0000000e+00 
2.3100000e+01 0.0000000e+00 0.0000000e+00 
2.3200001e+01 0.0000000e+00 0.0000000e+00 
2.3299999e+01 0.0000000e+00 0.0000000e+00 
2.3400000e+01 0.0000000e+00 0.0000000e+00 
2.3500000e+01 0.0000000e+00 0.0000000e+00 
2.3600000e+01 0.0000000e+00 0.0000000e+00 
2.3700001e+01 0.0000000e+00 0.0000000e+00 
2.3799999e+01 0.0000000e+00 0.0000000e+00 
2.3900000e+01 0.0000000e+00 0.0000000e+00 
2.4000000e+01 0.0000000e+00 0.0000000e+00 
2.4100000e+01 0.0000000e+00 0.0000000e+00 
2.4200001e+01 0.0000000e+00 0.0000000e+00 
2.4299999e+01 0.0000000e+00 0.0000000e+00 
2.4400000e+01 0.0000000e+00 0.0000000e+00 
2.4500000e+01 0.0000000e+00 0.0000000e+00 
2.4600000e+01 0.0000000e+00 0.0000000e+00 
2.4700001e+01 0.0000000e+00 0.0000000e+00 
2.4799999e+01 0.0000000e+00 0.0000000e+00 
2.4900000e+01 0.0000000e+00 0.0000000e+00 

CELLS 250 750
2 0 2
2 2 3
2 3 4
2 4 5
2 5 6
2 6 7
2 7 8
2 8 9
2 9 10
2 10 11
2 11 12
2 12 13
2 13 14
2 14 15
2 15 16
2 16 17
2 17 18
2 18 19
2 19 20
2 20 21
2 21 22
2 22 23
2 23 24
2 24 25
2 25 26
2 26 27
2 27 28
2 28 29
2 29 30
2 30 31
2 31 32
2 32 33
2 33 34
2 34 35
2 35 36
2 36 37
2 37 38
2 38 39
2 39 40
2 40 41
2 41 42
2 42 43
2 43 44
2 44 45
2 45 46
2 46 47
2 47 48
2 48 49
2 49 50
2 50 51
2 51 52
2 52 53
2 53 54
2 54 55
2 55 56
2 56 57
2 57 58
2 58 59
2 59 60
2 60 61
2 61 62
2 62 63
2 63 64
2 64 65
2 65 66
2 66 67
2 67 68
2 68 69
2 69 70
2 70 71
2 71 72
2 72 73
2 73 74
2 74 75
2 75 76
2 76 77
2 77 78
2 78 79
2 79 80
2 80 81
2 81 82
2 82 83
2 83 84
2 84 85
2 85 86
2 86 87
2 87 88
2 88 89
2 89 90
2 90 91
2 91 92
2 92 93
2 93 94
2 94 95
2 95 96
2 96 97
2 97 98
2 98 99
2 99 100
2 100 101
2 101 102
2 102 103
2 103 104
2 104 105
2 105 106
2 106 107
2 107 108
2 108 109
2 109 110
2 110 111
2 111 112
2 112 113
2 113 114
2 114 115
2 115 116
2 116 117
2 117 118
2 118 119
2 119 120
2 120 121
2 121 122
2 122 123
2 123 124
2 124 125
2 125 126
2 126 127
2 127 128
2 128 129
2 129 130
2 130 131
2 131 132
2 132 133
2 133 134
2 134 135
2 135 136
2 136 137
2 137 138
2 138 139
2 139 140
2 140 141
2 141 142
2 142 143
2 143 144
2 144 145
2 145 146
2 146 147
2 147 148
2 148 149
2 149 150
2 150 151
2 151 152
2 152 153
2 153 154
2 154 155
2 155 156
2 156 157
2 157 158
2 158 159
2 159 160
2 160 161
2 161 162
2 162 163
2 163 164
2 164 165
2 165 166
2 166 167
2 167 168
2 168 169
2 169 170
2 170 171
2 171 172
2 172 173
2 173 174
2 174 175
2 175 176
2 176 177
2 177 178
2 178 179
2 179 180
2 180 181
2 181 182
2 182 183
2 183 184
2 184 185
2 185 186
2 186 187
2 187 188
2 188 189
2 189 190
2 190 191
2 191 192
2 192 193
2 193 194
2 194 195
2 195 196
2 196 197
2 197 198
2 198 199
2 199 200
2 200 201
2 201 202
2 202 203
2 203 204
2 204 205
2 205 206
2 206 207
2 207 208
2 208 209
2 209 210
2 210 211
2 211 212
2 212 213
2 213 214
2 214 215
2 215 216
2 216 217
2 217 218
2 218 219
2 219 220
2 220 221
2 221 222
2 222 223
2 223 224
2 224 225
2 225 226
2 226 227
2 227 228
2 228 229
2 229 230
2 230 231
2 231 232
2 232 233
2 233 234
2 234 235
2 235 236
2 236 237
2 237 238
2 238 239
2 239 240
2 240 241
2 241 242
2 242 243
2 243 244
2 244 245
2 245 246
2 246 247
2 247 248
2 248 249
2 249 250
2 250 1

CELL_TYPES 250
3
3
3
3
3
3
3
3
3
3
3
3
3
3
3
3
3
3
3
3
3
3
3
3
3
3
3
3
3
3
3
3
3
3
3
3
3
3
3
3
3
3
3
3
3
3
3
3
3
3
3
3
3
3
3
3
3
3
3
3
3
3
3
3
3
3
3
3
3
3
3
3
3
3
3
3
3
3
3
3
3
3
3
3
3
3
3
3
3
3
3
3
3
3
3
3
3
3
3
3
3
3
3
3
3
3
3
3
3
3
3
3
3
3
3
3
3
3
3
3
3
3
3
3
3
3
3
3
3
3
3
3
3
3
3
3
3
3
3
3
3
3
3
3
3
3
3
3
3
3
3
3
3
3
3
3
3
3
3
3
3
3
3
3
3
3
3
3
3
3
3
3
3
3
3
3
3
3
3
3
3
3
3
3
3
3
3
3
3
3
3
3
3
3
3
3
3
3
3
3
3
3
3
3
3
3
3
3
3
3
3
3
3
3
3
3
3
3
3
3
3
3
3
3
3
3
3
3
3
3
3
3
3
3
3
3
3
3
3
3
3
3
3
3
3
3
3
3
3
3
POINT_DATA 251
FIELD FieldData 1
DISPLACEMENT 3 251  float
0.0000000e+00 0.0000000e+00 0.0000000e+00 
0.0000000e+00 0.0000000e+00 0.0000000e+00 
0.0000000e+00 -3.5708863e-04 0.0000000e+00 
0.0000000e+00 -7.1413454e-04 0.0000000e+00 
0.0000000e+00 -1.0710950e-03 0.0000000e+00 
0.0000000e+00 -1.4279273e-03 0.0000000e+00 
0.0000000e+00 -1.7845888e-03 0.0000000e+00 
0.0000000e+00 -2.1410366e-03 0.0000000e+00 
0.0000000e+00 -2.4972281e-03 0.0000000e+00 
0.0000000e+00 -2.8531207e-03 0.0000000e+00 
0.0000000e+00 -3.2086712e-03 0.0000000e+00 
0.0000000e+00 -3.5638376e-03 0.0000000e+00 
0.0000000e+00 -3.9185765e-03 0.0000000e+00 
0.0000000e+00 -4.2728456e-03 0.0000000e+00 
0.0000000e+00 -4.6266024e-03 0.0000000e+00 
0.0000000e+00 -4.9798032e-03 0.0000000e+00 
0.0000000e+00 -5.3324066e-03 0.0000000e+00 
0.0000000e+00 -5.6843688e-03 0.0000000e+00 
0.0000000e+00 -6.0356474e-03 0.0000000e+00 
0.0000000e+00 -6.3862000e-03 0.0000000e+00 
0.0000000e+00 -6.7359838e-03 0.0000000e+00 
0.0000000e+00 -7.0849555e-03 0.0000000e+00 
0.0000000e+00 -7.4330731e-03 0.0000000e+00 
0.0000000e+00 -7.7802935e-03 0.0000000e+00 
0.0000000e+00 -8.1265736e-03 0.0000000e+00 
0.0000000e+00 -8.4718717e-03 0.0000000e+00 
0.0000000e+00 -8.8161444e-03 0.0000000e+00 
0.0000000e+00 -9.1593498e-03 0.0000000e+00 
0.0000000e+00 -9.5014432e-03 0.0000000e+00 
0.0000000e+00 -9.8423837e-03 0.0000000e+00 
0.0000000e+00 -1.0182128e-02 0.0000000e+00 
0.0000000e+00 -1.0520634e-02 0.0000000e+00 
0.0000000e+00 -1.0857858e-02 0.0000000e+00 
0.0000000e+00 -1.1193758e-02 0.0000000e+00 
0.0000000e+00 -1.1528291e-02 0.0000000e+00 
0.0000000e+00 -1.1861414e-02 0.0000000e+00 
0.0000000e+00 -1.2193084e-02 0.0000000e+00 
0.0000000e+00 -1.2523259e-02 0.0000000e+00 
0.0000000e+00 -1.2851897e-02 0.0000000e+00 
0.0000000e+00 -1.3178953e-02 0.0000000e+00 
0.0000000e+00 -1.3504387e-02 0.0000000e+00 
0.0000000e+00 -1.3828154e-02 0.0000000e+00 
0.0000000e+00 -1.4150213e-02 0.0000000e+00 
0.0000000e+00 -1.4470519e-02 0.0000000e+00 
0.0000000e+00 -1.4789032e-02 0.0000000e+00 
0.0000000e+00 -1.5105708e-02 0.0000000e+00 
0.0000000e+00 -1.5420504e-02 0.0000000e+00 
0.0000000e+00 -1.5733378e-02 0.0000000e+00 
0.0000000e+00 -1.6044287e-02 0.0000000e+00 
0.0000000e+00 -1.6353188e-02 0.0000000e+00 
0.0000000e+00 -1.6660038e-02 0.0000000e+00 
0.0000000e+00 -1.6964795e-02 0.0000000e+00 
0.0000000e+00 -1.7267415e-02 0.0000000e+00 
0.0000000e+00 -1.7567858e-02 0.0000000e+00 
0.0000000e+00 -1.7866079e-02 0.0000000e+00 
0.0000000e+00 -1.8162036e-02 0.0000000e+00 
0.0000000e+00 -1.8455686e-02 0.0000000e+00 
0.0000000e+00 -1.8746987e-02 0.0000000e+00 
0.0000000e+00 -1.9035894e-02 0.0000000e+00 
0.0000000e+00 -1.9322367e-02 0.0000000e+00 
0.0000000e+00 -1.9606363e-02 0.0000000e+00 
0.0000000e+00 -1.9887839e-02 0.0000000e+00 
0.0000000e+00 -2.0166749e-02 0.0000000e+00 
0.0000000e+00 -2.0443056e-02 0.0000000e+00 
0.0000000e+00 -2.0716712e-02 0.0000000e+00 
0.0000000e+00 -2.0987678e-02 0.0000000e+00 
0.0000000e+00 -2.1255910e-02 0.0000000e+00 
0.0000000e+00 -2.1521365e-02 0.0000000e+00 
0.0000000e+00 -2.1784000e-02 0.0000000e+00 
0.0000000e+00 -2.2043774e-02 0.0000000e+00 
0.0000000e+00 -2.2300642e-02 0.0000000e+00 
0.0000000e+00 -2.2554563e-02 0.0000000e+00 
0.0000000e+00 -2.2805493e-02 0.0000000e+00 
0.0000000e+00 -2.3053391e-02 0.0000000e+00 
0.0000000e+00 -2.3298211e-02 0.0000000e+00 
0.0000000e+00 -2.3539916e-02 0.0000000e+00 
0.0000000e+00 -2.3778457e-02 0.0000000e+00 
0.0000000e+00 -2.4013795e-02 0.0000000e+00 
0.0000000e+00 -2.4245884e-02 0.0000000e+00 
0.0000000e+00 -2.4474686e-02 0.0000000e+00 
0.0000000e+00 -2.4700155e-02 0.0000000e+00 
0.0000000e+00 -2.4922250e-02 0.0000000e+00 
0.0000000e+00 -2.5140928e-02 0.0000000e+00 
0.0000000e+00 -2.5356144e-02 0.0000000e+00 
0.0000000e+00 -2.5567858e-02 0.0000000e+00 
0.0000000e+00 -2.5776027e-02 0.0000000e+00 
0.0000000e+00 -2.5980605e-02 0.0000000e+00 
0.0000000e+00 -2.6181554e-02 0.0000000e+00 
0.0000000e+00 -2.6378829e-02 0.0000000e+00 
0.0000000e+00 -2.6572386e-02 0.0000000e+00 
0.0000000e+00 -2.6762186e-02 0.0000000e+00 
0.0000000e+00 -2.6948182e-02 0.0000000e+00 
0.0000000e+00 -2.7130334e-02 0.0000000e+00 
0.0000000e+00 -2.7308596e-02 0.0000000e+00 
0.0000000e+00 -2.7482931e-02 0.0000000e+00 
0.0000000e+00 -2.7653292e-02 0.0000000e+00 
0.0000000e+00 -2.7819637e-02 0.0000000e+00 
0.0000000e+00 -2.7981924e-02 0.0000000e+00 
0.0000000e+00 -2.8140111e-02 0.0000000e+00 
0.0000000e+00 -2.8294154e-02 0.0000000e+00 
0.0000000e+00 -2.8444009e-02 0.0000000e+00 
0.0000000e+00 -2.8589634e-02 0.0000000e+00 
0.0000000e+00 -2.8730989e-02 0.0000000e+00 
0.0000000e+00 -2.8868029e-02 0.0000000e+00 
0.0000000e+00 -2.9000711e-02 0.0000000e+00 
0.0000000e+00 -2.9128993e-02 0.0000000e+00 
0.0000000e+00 -2.9252833e-02 0.0000000e+00 
0.0000000e+00 -2.9372187e-02 0.0000000e+00 
0.0000000e+00 -2.9487012e-02 0.0000000e+00 
0.0000000e+00 -2.9597268e-02 0.0000000e+00 
0.0000000e+00 -2.9702907e-02 0.0000000e+00 
0.0000000e+00 -2.9803893e-02 0.0000000e+00 
0.0000000e+00 -2.9900178e-02 0.0000000e+00 
0.0000000e+00 -2.9991722e-02 0.0000000e+00 
0.0000000e+00 -3.0078480e-02 0.0000000e+00 
0.0000000e+00 -3.0160410e-02 0.0000000e+00 
0.0000000e+00 -3.0237472e-02 0.0000000e+00 
0.0000000e+00 -3.0309621e-02 0.0000000e+00 
0.0000000e+00 -3.0376814e-02 0.0000000e+00 
0.0000000e+00 -3.0439010e-02 0.0000000e+00 
0.0000000e+00 -3.0496163e-02 0.0000000e+00 
0.0000000e+00 -3.0548234e-02 0.0000000e+00 
0.0000000e+00 -3.0595178e-02 0.0000000e+00 
0.0000000e+00 -3.0636953e-02 0.0000000e+00 
0.0000000e+00 -3.0673515e-02 0.0000000e+00 
0.0000000e+00 -3.0704824e-02 0.0000000e+00 
0.0000000e+00 -3.0730836e-02 0.0000000e+00 
0.0000000e+00 -3.0751508e-02 0.0000000e+00 
0.0000000e+00 -3.0766796e-02 0.0000000e+00 
0.0000000e+00 -3.0776659e-02 0.0000000e+00 
0.0000000e+00 -3.0781055e-02 0.0000000e+00 
0.0000000e+00 -3.0779939e-02 0.0000000e+00 
0.0000000e+00 -3.0773271e-02 0.0000000e+00 
0.0000000e+00 -3.0761005e-02 0.0000000e+00 
0.0000000e+00 -3.0743100e-02 0.0000000e+00 
0.0000000e+00 -3.0719515e-02 0.0000000e+00 
0.0000000e+00 -3.0690204e-02 0.0000000e+00 
0.0000000e+00 -3.0655127e-02 0.0000000e+00 
0.0000000e+00 -3.0614238e-02 0.0000000e+00 
0.0000000e+00 -3.0567499e-02 0.0000000e+00 
0.0000000e+00 -3.0514862e-02 0.0000000e+00 
0.0000000e+00 -3.0456312e-02 0.0000000e+00 
0.0000000e+00 -3.0391887e-02 0.0000000e+00 
0.0000000e+00 -3.0321641e-02 0.0000000e+00 
0.0000000e+00 -3.0245626e-02 0.0000000e+00 
0.0000000e+00 -3.0163901e-02 0.0000000e+00 
0.0000000e+00 -3.0076513e-02 0.0000000e+00 
0.0000000e+00 -2.9983519e-02 0.0000000e+00 
0.0000000e+00 -2.9884972e-02 0.0000000e+00 
0.0000000e+00 -2.9780922e-02 0.0000000e+00 
0.0000000e+00 -2.9671429e-02 0.0000000e+00 
0.0000000e+00 -2.9556541e-02 0.0000000e+00 
0.0000000e+00 -2.9436313e-02 0.0000000e+00 
0.0000000e+00 -2.9310798e-02 0.0000000e+00 
0.0000000e+00 -2.9180050e-02 0.0000000e+00 
0.0000000e+00 -2.9044123e-02 0.0000000e+00 
0.0000000e+00 -2.8903069e-02 0.0000000e+00 
0.0000000e+00 -2.8756943e-02 0.0000000e+00 
0.0000000e+00 -2.8605796e-02 0.0000000e+00 
0.0000000e+00 -2.8449683e-02 0.0000000e+00 
0.0000000e+00 -2.8288659e-02 0.0000000e+00 
0.0000000e+00 -2.8122773e-02 0.0000000e+00 
0.0000000e+00 -2.7952082e-02 0.0000000e+00 
0.0000000e+00 -2.7776640e-02 0.0000000e+00 
0.0000000e+00 -2.7596498e-02 0.0000000e+00 
0.0000000e+00 -2.7411709e-02 0.0000000e+00 
0.0000000e+00 -2.7222330e-02 0.0000000e+00 
0.0000000e+00 -2.7028410e-02 0.0000000e+00 
0.0000000e+00 -2.6830005e-02 0.0000000e+00 
0.0000000e+00 -2.6627168e-02 0.0000000e+00 
0.0000000e+00 -2.6419953e-02 0.0000000e+00 
0.0000000e+00 -2.6208410e-02 0.0000000e+00 
0.0000000e+00 -2.5992598e-02 0.0000000e+00 
0.0000000e+00 -2.5772566e-02 0.0000000e+00 
0.0000000e+00 -2.5548369e-02 0.0000000e+00 
0.0000000e+00 -2.5320061e-02 0.0000000e+00 
0.0000000e+00 -2.5087694e-02 0.0000000e+00 
0.0000000e+00 -2.4851320e-02 0.0000000e+00 
0.0000000e+00 -2.4610998e-02 0.0000000e+00 
0.0000000e+00 -2.4366776e-02 0.0000000e+00 
0.0000000e+00 -2.4118708e-02 0.0000000e+00 
0.0000000e+00 -2.3866851e-02 0.0000000e+00 
0.0000000e+00 -2.3611255e-02 0.0000000e+00 
0.0000000e+00 -2.3351975e-02 0.0000000e+00 
0.0000000e+00 -2.3089064e-02 0.0000000e+00 
0.0000000e+00 -2.2822574e-02 0.0000000e+00 
0.0000000e+00 -2.2552561e-02 0.0000000e+00 
0.0000000e+00 -2.2279076e-02 0.0000000e+00 
0.0000000e+00 -2.2002174e-02 0.0000000e+00 
0.0000000e+00 -2.1721907e-02 0.0000000e+00 
0.0000000e+00 -2.1438330e-02 0.0000000e+00 
0.0000000e+00 -2.1151496e-02 0.0000000e+00 
0.0000000e+00 -2.0861456e-02 0.0000000e+00 
0.0000000e+00 -2.0568268e-02 0.0000000e+00 
0.0000000e+00 -2.0271981e-02 0.0000000e+00 
0.0000000e+00 -1.9972652e-02 0.0000000e+00 
0.0000000e+00 -1.9670330e-02 0.0000000e+00 
0.0000000e+00 -1.9365074e-02 0.0000000e+00 
0.0000000e+00 -1.9056933e-02 0.0000000e+00 
0.0000000e+00 -1.8745961e-02 0.0000000e+00 
0.0000000e+00 -1.8432213e-02 0.0000000e+00 
0.0000000e+00 -1.8115742e-02 0.0000000e+00 
0.0000000e+00 -1.7796600e-02 0.0000000e+00 
0.0000000e+00 -1.7474843e-02 0.0000000e+00 
0.0000000e+00 -1.7150521e-02 0.0000000e+00 
0.0000000e+00 -1.6823690e-02 0.0000000e+00 
0.0000000e+00 -1.6494405e-02 0.0000000e+00 
0.0000000e+00 -1.6162714e-02 0.0000000e+00 
0.0000000e+00 -1.5828673e-02 0.0000000e+00 
0.0000000e+00 -1.5492338e-02 0.0000000e+00 
0.0000000e+00 -1.5153759e-02 0.0000000e+00 
0.0000000e+00 -1.4812991e-02 0.0000000e+00 
0.0000000e+00 -1.4470086e-02 0.0000000e+00 
0.0000000e+00 -1.4125100e-02 0.0000000e+00 
0.0000000e+00 -1.3778084e-02 0.0000000e+00 
0.0000000e+00 -1.3429092e-02 0.0000000e+00 
0.0000000e+00 -1.3078178e-02 0.0000000e+00 
0.0000000e+00 -1.2725395e-02 0.0000000e+00 
0.0000000e+00 -1.2370797e-02 0.0000000e+00 
0.0000000e+00 -1.2014437e-02 0.0000000e+00 
0.0000000e+00 -1.1656366e-02 0.0000000e+00 
0.0000000e+00 -1.1296642e-02 0.0000000e+00 
0.0000000e+00 -1.0935315e-02 0.0000000e+00 
0.0000000e+00 -1.0572439e-02 0.0000000e+00 
0.0000000e+00 -1.0208068e-02 0.0000000e+00 
0.0000000e+00 -9.8422561e-03 0.0000000e+00 
0.0000000e+00 -9.4750552e-03 0.0000000e+00 
0.0000000e+00 -9.1065187e-03 0.0000000e+00 
0.0000000e+00 -8.7367017e-03 0.0000000e+00 
0.0000000e+00 -8.3656562e-03 0.0000000e+00 
0.0000000e+00 -7.9934355e-03 0.0000000e+00 
0.0000000e+00 -7.6200934e-03 0.0000000e+00 
0.0000000e+00 -7.2456836e-03 0.0000000e+00 
0.0000000e+00 -6.8702595e-03 0.0000000e+00 
0.0000000e+00 -6.4938739e-03 0.0000000e+00 
0.0000000e+00 -6.1165802e-03 0.0000000e+00 
0.0000000e+00 -5.7384325e-03 0.0000000e+00 
0.0000000e+00 -5.3594839e-03 0.0000000e+00 
0.0000000e+00 -4.9797874e-03 0.0000000e+00 
0.0000000e+00 -4.5993966e-03 0.0000000e+00 
0.0000000e+00 -4.2183655e-03 0.0000000e+00 
0.0000000e+00 -3.8367466e-03 0.0000000e+00 
0.0000000e+00 -3.4545937e-03 0.0000000e+00 
0.0000000e+00 -3.0719605e-03 0.0000000e+00 
0.0000000e+00 -2.6888999e-03 0.0000000e+00 
0.0000000e+00 -2.3054655e-03 0.0000000e+00 
0.0000000e+00 -1.9217108e-03 0.0000000e+00 
0.0000000e+00 -1.5376890e-03 0.0000000e+00 
0.0000000e+00 -1.1534536e-03 0.0000000e+00 
0.0000000e+00 -7.6905813e-04 0.0000000e+00 
0.0000000e+00 -3.8455575e-04 0.0000000e+00 
CELL_DATA 250
FIELD FieldData 0
