# vtk DataFile Version 4.0
vtk output
ASCII
DATASET UNSTRUCTURED_GRID
POINTS 101 float
0.0000000e+00 0.0000000e+00 0.0000000e+00 
0.0000000e+00 2.5000000e-01 0.0000000e+00 
2.5000000e-01 0.0000000e+00 0.0000000e+00 
2.5000000e-01 2.5000000e-01 0.0000000e+00 
0.0000000e+00 5.0000000e-01 0.0000000e+00 
5.0000000e-01 0.0000000e+00 0.0000000e+00 
3.5416666e-01 5.0558227e-01 0.0000000e+00 
6.0416669e-01 2.5558227e-01 0.0000000e+00 
0.0000000e+00 7.5000000e-01 0.0000000e+00 
7.5000000e-01 0.0000000e+00 0.0000000e+00 
2.5000000e-01 7.5000000e-01 0.0000000e+00 
7.0833331e-01 5.1116455e-01 0.0000000e+00 
8.5416669e-01 2.5558227e-01 0.0000000e+00 
6.0416669e-01 7.5558227e-01 0.0000000e+00 
0.0000000e+00 1.0000000e+00 0.0000000e+00 
1.0000000e+00 0.0000000e+00 0.0000000e+00 
2.5000000e-01 1.0000000e+00 0.0000000e+00 
9.7916669e-01 5.3907591e-01 0.0000000e+00 
5.0000000e-01 1.0000000e+00 0.0000000e+00 
8.5416669e-01 7.5558227e-01 0.0000000e+00 
1.1250000e+00 2.8349364e-01 0.0000000e+00 
7.5000000e-01 1.0000000e+00 0.0000000e+00 
1.2500000e+00 0.0000000e+00 0.0000000e+00 
1.1250000e+00 7.8349364e-01 0.0000000e+00 
1.2500000e+00 5.6698728e-01 0.0000000e+00 
1.3750000e+00 2.8349364e-01 0.0000000e+00 
1.0000000e+00 1.0000000e+00 0.0000000e+00 
1.5000000e+00 0.0000000e+00 0.0000000e+00 
1.3750000e+00 7.8349364e-01 0.0000000e+00 
1.2500000e+00 1.0000000e+00 0.0000000e+00 
1.5000000e+00 5.6698728e-01 0.0000000e+00 
1.6250000e+00 2.8349364e-01 0.0000000e+00 
1.7500000e+00 0.0000000e+00 0.0000000e+00 
1.5000000e+00 1.0000000e+00 0.0000000e+00 
1.6250000e+00 7.8349364e-01 0.0000000e+00 
1.7500000e+00 5.6698728e-01 0.0000000e+00 
1.8750000e+00 2.8349364e-01 0.0000000e+00 
2.0000000e+00 0.0000000e+00 0.0000000e+00 
1.7500000e+00 1.0000000e+00 0.0000000e+00 
1.8750000e+00 7.8349364e-01 0.0000000e+00 
2.0000000e+00 5.6698728e-01 0.0000000e+00 
2.1250000e+00 2.8349364e-01 0.0000000e+00 
2.0000000e+00 1.0000000e+00 0.0000000e+00 
2.2500000e+00 0.0000000e+00 0.0000000e+00 
2.1250000e+00 7.8349364e-01 0.0000000e+00 
2.2500000e+00 5.6698728e-01 0.0000000e+00 
2.3750000e+00 2.8349364e-01 0.0000000e+00 
2.2500000e+00 1.0000000e+00 0.0000000e+00 
2.5000000e+00 0.0000000e+00 0.0000000e+00 
2.3750000e+00 7.8349364e-01 0.0000000e+00 
2.5000000e+00 5.6698728e-01 0.0000000e+00 
2.6250000e+00 2.8349364e-01 0.0000000e+00 
2.5000000e+00 1.0000000e+00 0.0000000e+00 
2.6250000e+00 7.8349364e-01 0.0000000e+00 
2.7500000e+00 0.0000000e+00 0.0000000e+00 
2.7500000e+00 5.6698728e-01 0.0000000e+00 
2.8750000e+00 2.8349364e-01 0.0000000e+00 
2.7500000e+00 1.0000000e+00 0.0000000e+00 
2.8750000e+00 7.8349364e-01 0.0000000e+00 
3.0000000e+00 0.0000000e+00 0.0000000e+00 
3.0000000e+00 5.0000000e-01 0.0000000e+00 
3.1250000e+00 2.1650635e-01 0.0000000e+00 
3.0000000e+00 1.0000000e+00 0.0000000e+00 
3.1250000e+00 7.1650636e-01 0.0000000e+00 
3.2500000e+00 0.0000000e+00 0.0000000e+00 
3.2500000e+00 4.3301269e-01 0.0000000e+00 
3.3750000e+00 2.1650635e-01 0.0000000e+00 
3.2500000e+00 1.0000000e+00 0.0000000e+00 
3.3750000e+00 7.1650636e-01 0.0000000e+00 
3.5000000e+00 0.0000000e+00 0.0000000e+00 
3.5000000e+00 4.3301269e-01 0.0000000e+00 
3.6250000e+00 2.1650635e-01 0.0000000e+00 
3.5000000e+00 1.0000000e+00 0.0000000e+00 
3.6250000e+00 7.1650636e-01 0.0000000e+00 
3.7500000e+00 0.0000000e+00 0.0000000e+00 
3.7500000e+00 4.3301269e-01 0.0000000e+00 
3.8750000e+00 2.1650635e-01 0.0000000e+00 
3.7500000e+00 1.0000000e+00 0.0000000e+00 
3.8750000e+00 7.1650636e-01 0.0000000e+00 
4.0000000e+00 0.0000000e+00 0.0000000e+00 
4.0208335e+00 4.6092409e-01 0.0000000e+00 
4.0000000e+00 1.0000000e+00 0.0000000e+00 
4.1458335e+00 2.4441773e-01 0.0000000e+00 
4.1458335e+00 7.4441773e-01 0.0000000e+00 
4.2500000e+00 0.0000000e+00 0.0000000e+00 
4.2916665e+00 4.8883545e-01 0.0000000e+00 
4.2500000e+00 1.0000000e+00 0.0000000e+00 
4.3958335e+00 2.4441773e-01 0.0000000e+00 
4.3958335e+00 7.4441773e-01 0.0000000e+00 
4.5000000e+00 0.0000000e+00 0.0000000e+00 
4.5000000e+00 1.0000000e+00 0.0000000e+00 
4.6458335e+00 4.9441773e-01 0.0000000e+00 
4.7500000e+00 0.0000000e+00 0.0000000e+00 
4.7500000e+00 2.5000000e-01 0.0000000e+00 
4.7500000e+00 7.5000000e-01 0.0000000e+00 
4.7500000e+00 1.0000000e+00 0.0000000e+00 
5.0000000e+00 0.0000000e+00 0.0000000e+00 
5.0000000e+00 2.5000000e-01 0.0000000e+00 
5.0000000e+00 5.0000000e-01 0.0000000e+00 
5.0000000e+00 7.5000000e-01 0.0000000e+00 
5.0000000e+00 1.0000000e+00 0.0000000e+00 

CELLS 38 266
6 0 5 4 2 3 1
6 79 89 85 84 87 82
6 62 52 55 57 53 58
6 85 89 98 87 93 91
6 79 85 75 82 80 76
6 55 52 45 53 49 50
6 75 85 81 80 83 78
6 79 75 69 76 71 74
6 45 52 42 49 47 44
6 55 45 48 50 46 51
6 69 75 65 71 70 66
6 65 75 72 70 73 68
6 69 65 59 66 61 64
6 59 65 55 61 60 56
6 37 48 45 43 46 41
6 100 90 98 95 94 99
6 26 18 11 21 13 19
6 11 18 4 13 10 6
6 26 11 24 19 17 23
6 24 11 15 17 12 20
6 26 24 33 23 28 29
6 33 24 35 28 30 34
6 35 24 27 30 25 31
6 33 35 42 34 39 38
6 42 35 45 39 40 44
6 45 35 37 40 36 41
6 15 27 24 22 25 20
6 96 98 89 97 93 92
6 81 72 75 77 73 78
6 14 4 18 8 10 16
6 5 15 11 9 12 7
6 48 59 55 54 56 51
6 90 81 85 86 83 88
6 27 37 35 32 36 31
6 72 62 65 67 63 68
6 62 55 65 58 60 63
6 90 85 98 88 91 94
6 5 11 4 7 6 3

CELL_TYPES 38
22
22
22
22
22
22
22
22
22
22
22
22
22
22
22
22
22
22
22
22
22
22
22
22
22
22
22
22
22
22
22
22
22
22
22
22
22
22
POINT_DATA 101
FIELD FieldData 2
DISPLACEMENT 3 101  float
0.0000000e+00 0.0000000e+00 0.0000000e+00 
0.0000000e+00 0.0000000e+00 0.0000000e+00 
0.0000000e+00 0.0000000e+00 0.0000000e+00 
2.5505315e-06 -1.8470869e-06 0.0000000e+00 
0.0000000e+00 0.0000000e+00 0.0000000e+00 
0.0000000e+00 0.0000000e+00 0.0000000e+00 
3.9167694e-06 -6.9569405e-06 0.0000000e+00 
1.1606699e-05 -5.1866696e-06 0.0000000e+00 
0.0000000e+00 0.0000000e+00 0.0000000e+00 
0.0000000e+00 0.0000000e+00 0.0000000e+00 
1.3847921e-06 -5.8689620e-06 0.0000000e+00 
1.2828225e-05 -1.5327249e-05 0.0000000e+00 
2.6164489e-05 -4.4714238e-06 0.0000000e+00 
1.8206564e-06 -1.7084816e-05 0.0000000e+00 
0.0000000e+00 0.0000000e+00 0.0000000e+00 
0.0000000e+00 0.0000000e+00 0.0000000e+00 
3.5131288e-06 -6.0057059e-06 0.0000000e+00 
2.6487547e-05 -1.5988930e-05 0.0000000e+00 
3.4666639e-06 -1.3976831e-05 0.0000000e+00 
-6.1861209e-07 -2.2662800e-05 0.0000000e+00 
5.6501103e-05 3.2499497e-06 0.0000000e+00 
-6.8308632e-06 -1.9928866e-05 0.0000000e+00 
0.0000000e+00 0.0000000e+00 0.0000000e+00 
-1.1247757e-05 -1.8381421e-05 0.0000000e+00 
4.8008362e-05 2.1861397e-06 0.0000000e+00 
1.0187633e-04 3.5208490e-05 0.0000000e+00 
-2.7403990e-05 -1.9882315e-05 0.0000000e+00 
0.0000000e+00 0.0000000e+00 0.0000000e+00 
-2.3500383e-05 2.2418695e-05 0.0000000e+00 
-8.3270461e-05 2.2476991e-06 0.0000000e+00 
1.0128362e-04 7.8531637e-05 0.0000000e+00 
1.6516935e-04 1.1530882e-04 0.0000000e+00 
0.0000000e+00 0.0000000e+00 0.0000000e+00 
-1.7268535e-04 7.8450656e-05 0.0000000e+00 
-3.2076427e-05 1.5109011e-04 0.0000000e+00 
1.8778032e-04 2.8649266e-04 0.0000000e+00 
2.2509282e-04 2.7057284e-04 0.0000000e+00 
0.0000000e+00 0.0000000e+00 0.0000000e+00 
-3.6618658e-04 3.0009239e-04 0.0000000e+00 
-1.1579359e-05 4.7730448e-04 0.0000000e+00 
2.5991889e-04 7.0907827e-04 0.0000000e+00 
2.3059823e-04 5.0247682e-04 0.0000000e+00 
-6.2778150e-04 7.6228939e-04 0.0000000e+00 
0.0000000e+00 0.0000000e+00 0.0000000e+00 
1.3542552e-04 1.3139794e-03 0.0000000e+00 
2.2962960e-04 1.3376019e-03 0.0000000e+00 
1.1735187e-04 7.0142414e-04 0.0000000e+00 
-6.1810616e-04 2.3863080e-03 0.0000000e+00 
0.0000000e+00 0.0000000e+00 0.0000000e+00 
2.4276412e-04 2.7747927e-03 0.0000000e+00 
-6.1175415e-06 1.7279459e-03 0.0000000e+00 
-7.3250347e-05 7.0062059e-04 0.0000000e+00 
4.5050496e-05 5.2621020e-03 0.0000000e+00 
-2.9756525e-04 2.6142786e-03 0.0000000e+00 
0.0000000e+00 0.0000000e+00 0.0000000e+00 
-1.8679757e-04 1.2776783e-03 0.0000000e+00 
-1.4575163e-04 5.3813757e-04 0.0000000e+00 
5.1990466e-04 1.9109747e-03 0.0000000e+00 
-8.7972105e-05 1.2312877e-03 0.0000000e+00 
0.0000000e+00 0.0000000e+00 0.0000000e+00 
-1.5832880e-04 7.5723184e-04 0.0000000e+00 
-1.1686761e-04 3.0551245e-04 0.0000000e+00 
3.1438860e-04 9.6786773e-04 0.0000000e+00 
3.0090664e-06 8.3253084e-04 0.0000000e+00 
0.0000000e+00 0.0000000e+00 0.0000000e+00 
-1.3642869e-04 5.3653924e-04 0.0000000e+00 
-1.0621992e-04 2.5107485e-04 0.0000000e+00 
1.5892637e-04 1.0719738e-03 0.0000000e+00 
5.2616626e-05 9.3025347e-04 0.0000000e+00 
0.0000000e+00 0.0000000e+00 0.0000000e+00 
-1.2782817e-04 4.6355664e-04 0.0000000e+00 
-1.1136695e-04 1.8941102e-04 0.0000000e+00 
1.9078628e-04 1.7540761e-03 0.0000000e+00 
-1.0256385e-04 7.6611014e-04 0.0000000e+00 
0.0000000e+00 0.0000000e+00 0.0000000e+00 
-1.3053838e-04 2.9638445e-04 0.0000000e+00 
-1.0103083e-04 1.1446603e-04 0.0000000e+00 
2.6605622e-04 6.2073965e-04 0.0000000e+00 
-6.6291912e-05 3.3155998e-04 0.0000000e+00 
0.0000000e+00 0.0000000e+00 0.0000000e+00 
-1.1052712e-04 1.4883907e-04 0.0000000e+00 
2.1174528e-04 2.1101344e-04 0.0000000e+00 
-8.0543985e-05 6.0093920e-05 0.0000000e+00 
-1.0803339e-05 1.0330993e-04 0.0000000e+00 
0.0000000e+00 0.0000000e+00 0.0000000e+00 
-6.8340341e-05 5.0467603e-05 0.0000000e+00 
1.1753894e-04 6.7681700e-05 0.0000000e+00 
-5.0306684e-05 2.3112792e-05 0.0000000e+00 
-1.7516930e-06 2.1003960e-05 0.0000000e+00 
0.0000000e+00 0.0000000e+00 0.0000000e+00 
4.7860740e-05 6.8395429e-06 0.0000000e+00 
-2.5117743e-05 9.1036173e-07 0.0000000e+00 
0.0000000e+00 0.0000000e+00 0.0000000e+00 
-1.6639287e-05 2.5188992e-06 0.0000000e+00 
1.4728240e-06 -7.2038133e-06 0.0000000e+00 
1.7941562e-05 -3.6983909e-06 0.0000000e+00 
0.0000000e+00 0.0000000e+00 0.0000000e+00 
0.0000000e+00 0.0000000e+00 0.0000000e+00 
0.0000000e+00 0.0000000e+00 0.0000000e+00 
0.0000000e+00 0.0000000e+00 0.0000000e+00 
0.0000000e+00 0.0000000e+00 0.0000000e+00 
TOTAL_DISPLACEMENT 3 101  float
0.0000000e+00 0.0000000e+00 0.0000000e+00 
0.0000000e+00 0.0000000e+00 0.0000000e+00 
0.0000000e+00 0.0000000e+00 0.0000000e+00 
2.6249551e-18 1.2733023e-18 0.0000000e+00 
0.0000000e+00 0.0000000e+00 0.0000000e+00 
0.0000000e+00 0.0000000e+00 0.0000000e+00 
6.0910139e-18 2.1235116e-18 0.0000000e+00 
6.3883225e-18 3.8412944e-18 0.0000000e+00 
0.0000000e+00 0.0000000e+00 0.0000000e+00 
0.0000000e+00 0.0000000e+00 0.0000000e+00 
4.2569758e-18 7.0473141e-19 0.0000000e+00 
1.2646202e-17 5.4548922e-18 0.0000000e+00 
8.4195075e-18 2.9078641e-18 0.0000000e+00 
1.0284462e-17 5.2007823e-18 0.0000000e+00 
0.0000000e+00 0.0000000e+00 0.0000000e+00 
0.0000000e+00 0.0000000e+00 0.0000000e+00 
3.2437127e-18 -5.0906680e-19 0.0000000e+00 
2.0034023e-17 7.7249405e-18 0.0000000e+00 
6.3277596e-18 1.9142945e-18 0.0000000e+00 
1.6824192e-17 3.8556940e-18 0.0000000e+00 
1.2529311e-17 8.4394128e-18 0.0000000e+00 
1.2375151e-17 4.2825986e-18 0.0000000e+00 
0.0000000e+00 0.0000000e+00 0.0000000e+00 
2.7440479e-17 1.3664336e-17 0.0000000e+00 
2.8954974e-17 1.4709574e-17 0.0000000e+00 
1.6168165e-17 1.0699720e-17 0.0000000e+00 
1.8177327e-17 7.3285291e-18 0.0000000e+00 
0.0000000e+00 0.0000000e+00 0.0000000e+00 
3.8902529e-17 2.3920210e-17 0.0000000e+00 
2.6834004e-17 1.6094897e-17 0.0000000e+00 
4.2134807e-17 2.6264798e-17 0.0000000e+00 
2.2470090e-17 1.7482760e-17 0.0000000e+00 
0.0000000e+00 0.0000000e+00 0.0000000e+00 
4.1226788e-17 3.4342104e-17 0.0000000e+00 
5.3112354e-17 4.1850204e-17 0.0000000e+00 
4.8382522e-17 4.0007060e-17 0.0000000e+00 
1.8973538e-17 9.5409791e-18 0.0000000e+00 
0.0000000e+00 0.0000000e+00 0.0000000e+00 
7.0418931e-17 5.3451167e-17 0.0000000e+00 
6.3798522e-17 5.1120132e-17 0.0000000e+00 
5.0035930e-17 3.1116602e-17 0.0000000e+00 
2.0193265e-17 2.5370331e-17 0.0000000e+00 
1.0115606e-16 5.9305859e-17 0.0000000e+00 
0.0000000e+00 0.0000000e+00 0.0000000e+00 
7.0879717e-17 4.2717566e-17 0.0000000e+00 
6.0932162e-17 2.5370331e-17 0.0000000e+00 
7.7249405e-18 3.2526065e-19 0.0000000e+00 
6.9714200e-17 1.0711917e-16 0.0000000e+00 
0.0000000e+00 0.0000000e+00 0.0000000e+00 
4.9656459e-17 5.2475385e-17 0.0000000e+00 
3.3617044e-17 2.6888214e-17 0.0000000e+00 
-1.0299921e-17 6.6136333e-18 0.0000000e+00 
9.8574306e-17 5.1174343e-17 0.0000000e+00 
4.7433845e-17 5.3342747e-17 0.0000000e+00 
0.0000000e+00 0.0000000e+00 0.0000000e+00 
1.5504091e-17 -2.4069288e-17 0.0000000e+00 
-9.4867690e-18 -2.4936650e-17 0.0000000e+00 
7.5568891e-17 5.1608023e-17 0.0000000e+00 
2.2768246e-17 -3.7513395e-17 0.0000000e+00 
0.0000000e+00 0.0000000e+00 0.0000000e+00 
4.6078592e-18 -6.2016364e-17 0.0000000e+00 
-7.5487576e-18 -2.4882440e-17 0.0000000e+00 
5.3288537e-17 -8.2616206e-17 0.0000000e+00 
1.5427435e-17 -6.8304737e-17 0.0000000e+00 
0.0000000e+00 0.0000000e+00 0.0000000e+00 
-1.5178830e-18 -5.6812194e-17 0.0000000e+00 
3.9166803e-18 -1.5504091e-17 0.0000000e+00 
1.0408341e-17 -6.3317407e-17 0.0000000e+00 
5.1431841e-18 -6.3208987e-17 0.0000000e+00 
0.0000000e+00 0.0000000e+00 0.0000000e+00 
4.7704896e-18 -3.4748680e-17 0.0000000e+00 
5.3261432e-18 -1.5883562e-17 0.0000000e+00 
-3.3718688e-17 4.3368087e-19 0.0000000e+00 
-5.5971937e-18 -3.7838656e-17 0.0000000e+00 
0.0000000e+00 0.0000000e+00 0.0000000e+00 
1.2549640e-17 -3.1441863e-17 0.0000000e+00 
8.6600649e-18 -1.2563193e-17 0.0000000e+00 
-3.1875544e-17 -3.7621815e-17 0.0000000e+00 
-2.4259024e-18 -2.5261911e-17 0.0000000e+00 
0.0000000e+00 0.0000000e+00 0.0000000e+00 
8.6465123e-18 -1.4203048e-17 0.0000000e+00 
-2.3744028e-17 -2.3256137e-17 0.0000000e+00 
4.7162795e-18 -4.3029274e-18 0.0000000e+00 
-3.4762232e-18 -8.4296719e-18 0.0000000e+00 
0.0000000e+00 0.0000000e+00 0.0000000e+00 
2.2632720e-18 -3.8421414e-18 0.0000000e+00 
-1.2671613e-17 -3.8082601e-18 0.0000000e+00 
3.1509626e-18 -1.7279472e-18 0.0000000e+00 
-2.8314194e-18 -1.0842022e-19 0.0000000e+00 
0.0000000e+00 0.0000000e+00 0.0000000e+00 
-5.1635128e-18 1.3298417e-19 0.0000000e+00 
-2.3378109e-19 4.6364466e-19 0.0000000e+00 
0.0000000e+00 0.0000000e+00 0.0000000e+00 
3.8285889e-19 1.4611318e-19 0.0000000e+00 
-1.1777993e-18 3.6253010e-19 0.0000000e+00 
-2.1819569e-18 4.6163296e-20 0.0000000e+00 
0.0000000e+00 0.0000000e+00 0.0000000e+00 
0.0000000e+00 0.0000000e+00 0.0000000e+00 
0.0000000e+00 0.0000000e+00 0.0000000e+00 
0.0000000e+00 0.0000000e+00 0.0000000e+00 
0.0000000e+00 0.0000000e+00 0.0000000e+00 
CELL_DATA 38
FIELD FieldData 0
