# vtk DataFile Version 4.0
vtk output
ASCII
DATASET UNSTRUCTURED_GRID
POINTS 101 float
0.0000000e+00 0.0000000e+00 0.0000000e+00 
0.0000000e+00 2.5000000e-01 0.0000000e+00 
2.5000000e-01 0.0000000e+00 0.0000000e+00 
2.5000000e-01 2.5000000e-01 0.0000000e+00 
0.0000000e+00 5.0000000e-01 0.0000000e+00 
5.0000000e-01 0.0000000e+00 0.0000000e+00 
3.5416666e-01 5.0558227e-01 0.0000000e+00 
6.0416669e-01 2.5558227e-01 0.0000000e+00 
0.0000000e+00 7.5000000e-01 0.0000000e+00 
7.5000000e-01 0.0000000e+00 0.0000000e+00 
2.5000000e-01 7.5000000e-01 0.0000000e+00 
7.0833331e-01 5.1116455e-01 0.0000000e+00 
8.5416669e-01 2.5558227e-01 0.0000000e+00 
6.0416669e-01 7.5558227e-01 0.0000000e+00 
0.0000000e+00 1.0000000e+00 0.0000000e+00 
1.0000000e+00 0.0000000e+00 0.0000000e+00 
2.5000000e-01 1.0000000e+00 0.0000000e+00 
9.7916669e-01 5.3907591e-01 0.0000000e+00 
5.0000000e-01 1.0000000e+00 0.0000000e+00 
8.5416669e-01 7.5558227e-01 0.0000000e+00 
1.1250000e+00 2.8349364e-01 0.0000000e+00 
7.5000000e-01 1.0000000e+00 0.0000000e+00 
1.2500000e+00 0.0000000e+00 0.0000000e+00 
1.1250000e+00 7.8349364e-01 0.0000000e+00 
1.2500000e+00 5.6698728e-01 0.0000000e+00 
1.3750000e+00 2.8349364e-01 0.0000000e+00 
1.0000000e+00 1.0000000e+00 0.0000000e+00 
1.5000000e+00 0.0000000e+00 0.0000000e+00 
1.3750000e+00 7.8349364e-01 0.0000000e+00 
1.2500000e+00 1.0000000e+00 0.0000000e+00 
1.5000000e+00 5.6698728e-01 0.0000000e+00 
1.6250000e+00 2.8349364e-01 0.0000000e+00 
1.7500000e+00 0.0000000e+00 0.0000000e+00 
1.5000000e+00 1.0000000e+00 0.0000000e+00 
1.6250000e+00 7.8349364e-01 0.0000000e+00 
1.7500000e+00 5.6698728e-01 0.0000000e+00 
1.8750000e+00 2.8349364e-01 0.0000000e+00 
2.0000000e+00 0.0000000e+00 0.0000000e+00 
1.7500000e+00 1.0000000e+00 0.0000000e+00 
1.8750000e+00 7.8349364e-01 0.0000000e+00 
2.0000000e+00 5.6698728e-01 0.0000000e+00 
2.1250000e+00 2.8349364e-01 0.0000000e+00 
2.0000000e+00 1.0000000e+00 0.0000000e+00 
2.2500000e+00 0.0000000e+00 0.0000000e+00 
2.1250000e+00 7.8349364e-01 0.0000000e+00 
2.2500000e+00 5.6698728e-01 0.0000000e+00 
2.3750000e+00 2.8349364e-01 0.0000000e+00 
2.2500000e+00 1.0000000e+00 0.0000000e+00 
2.5000000e+00 0.0000000e+00 0.0000000e+00 
2.3750000e+00 7.8349364e-01 0.0000000e+00 
2.5000000e+00 5.6698728e-01 0.0000000e+00 
2.6250000e+00 2.8349364e-01 0.0000000e+00 
2.5000000e+00 1.0000000e+00 0.0000000e+00 
2.6250000e+00 7.8349364e-01 0.0000000e+00 
2.7500000e+00 0.0000000e+00 0.0000000e+00 
2.7500000e+00 5.6698728e-01 0.0000000e+00 
2.8750000e+00 2.8349364e-01 0.0000000e+00 
2.7500000e+00 1.0000000e+00 0.0000000e+00 
2.8750000e+00 7.8349364e-01 0.0000000e+00 
3.0000000e+00 0.0000000e+00 0.0000000e+00 
3.0000000e+00 5.0000000e-01 0.0000000e+00 
3.1250000e+00 2.1650635e-01 0.0000000e+00 
3.0000000e+00 1.0000000e+00 0.0000000e+00 
3.1250000e+00 7.1650636e-01 0.0000000e+00 
3.2500000e+00 0.0000000e+00 0.0000000e+00 
3.2500000e+00 4.3301269e-01 0.0000000e+00 
3.3750000e+00 2.1650635e-01 0.0000000e+00 
3.2500000e+00 1.0000000e+00 0.0000000e+00 
3.3750000e+00 7.1650636e-01 0.0000000e+00 
3.5000000e+00 0.0000000e+00 0.0000000e+00 
3.5000000e+00 4.3301269e-01 0.0000000e+00 
3.6250000e+00 2.1650635e-01 0.0000000e+00 
3.5000000e+00 1.0000000e+00 0.0000000e+00 
3.6250000e+00 7.1650636e-01 0.0000000e+00 
3.7500000e+00 0.0000000e+00 0.0000000e+00 
3.7500000e+00 4.3301269e-01 0.0000000e+00 
3.8750000e+00 2.1650635e-01 0.0000000e+00 
3.7500000e+00 1.0000000e+00 0.0000000e+00 
3.8750000e+00 7.1650636e-01 0.0000000e+00 
4.0000000e+00 0.0000000e+00 0.0000000e+00 
4.0208335e+00 4.6092409e-01 0.0000000e+00 
4.0000000e+00 1.0000000e+00 0.0000000e+00 
4.1458335e+00 2.4441773e-01 0.0000000e+00 
4.1458335e+00 7.4441773e-01 0.0000000e+00 
4.2500000e+00 0.0000000e+00 0.0000000e+00 
4.2916665e+00 4.8883545e-01 0.0000000e+00 
4.2500000e+00 1.0000000e+00 0.0000000e+00 
4.3958335e+00 2.4441773e-01 0.0000000e+00 
4.3958335e+00 7.4441773e-01 0.0000000e+00 
4.5000000e+00 0.0000000e+00 0.0000000e+00 
4.5000000e+00 1.0000000e+00 0.0000000e+00 
4.6458335e+00 4.9441773e-01 0.0000000e+00 
4.7500000e+00 0.0000000e+00 0.0000000e+00 
4.7500000e+00 2.5000000e-01 0.0000000e+00 
4.7500000e+00 7.5000000e-01 0.0000000e+00 
4.7500000e+00 1.0000000e+00 0.0000000e+00 
5.0000000e+00 0.0000000e+00 0.0000000e+00 
5.0000000e+00 2.5000000e-01 0.0000000e+00 
5.0000000e+00 5.0000000e-01 0.0000000e+00 
5.0000000e+00 7.5000000e-01 0.0000000e+00 
5.0000000e+00 1.0000000e+00 0.0000000e+00 

CELLS 38 266
6 0 5 4 2 3 1
6 79 89 85 84 87 82
6 62 52 55 57 53 58
6 85 89 98 87 93 91
6 79 85 75 82 80 76
6 55 52 45 53 49 50
6 75 85 81 80 83 78
6 79 75 69 76 71 74
6 45 52 42 49 47 44
6 55 45 48 50 46 51
6 69 75 65 71 70 66
6 65 75 72 70 73 68
6 69 65 59 66 61 64
6 59 65 55 61 60 56
6 37 48 45 43 46 41
6 100 90 98 95 94 99
6 26 18 11 21 13 19
6 11 18 4 13 10 6
6 26 11 24 19 17 23
6 24 11 15 17 12 20
6 26 24 33 23 28 29
6 33 24 35 28 30 34
6 35 24 27 30 25 31
6 33 35 42 34 39 38
6 42 35 45 39 40 44
6 45 35 37 40 36 41
6 15 27 24 22 25 20
6 96 98 89 97 93 92
6 81 72 75 77 73 78
6 14 4 18 8 10 16
6 5 15 11 9 12 7
6 48 59 55 54 56 51
6 90 81 85 86 83 88
6 27 37 35 32 36 31
6 72 62 65 67 63 68
6 62 55 65 58 60 63
6 90 85 98 88 91 94
6 5 11 4 7 6 3

CELL_TYPES 38
22
22
22
22
22
22
22
22
22
22
22
22
22
22
22
22
22
22
22
22
22
22
22
22
22
22
22
22
22
22
22
22
22
22
22
22
22
22
POINT_DATA 101
FIELD FieldData 2
DISPLACEMENT 3 101  float
0.0000000e+00 0.0000000e+00 0.0000000e+00 
0.0000000e+00 0.0000000e+00 0.0000000e+00 
0.0000000e+00 0.0000000e+00 0.0000000e+00 
2.5505315e-06 -1.8470869e-06 0.0000000e+00 
0.0000000e+00 0.0000000e+00 0.0000000e+00 
0.0000000e+00 0.0000000e+00 0.0000000e+00 
3.9167694e-06 -6.9569405e-06 0.0000000e+00 
1.1606699e-05 -5.1866696e-06 0.0000000e+00 
0.0000000e+00 0.0000000e+00 0.0000000e+00 
0.0000000e+00 0.0000000e+00 0.0000000e+00 
1.3847921e-06 -5.8689620e-06 0.0000000e+00 
1.2828225e-05 -1.5327249e-05 0.0000000e+00 
2.6164489e-05 -4.4714238e-06 0.0000000e+00 
1.8206564e-06 -1.7084816e-05 0.0000000e+00 
0.0000000e+00 0.0000000e+00 0.0000000e+00 
0.0000000e+00 0.0000000e+00 0.0000000e+00 
3.5131288e-06 -6.0057059e-06 0.0000000e+00 
2.6487547e-05 -1.5988930e-05 0.0000000e+00 
3.4666639e-06 -1.3976831e-05 0.0000000e+00 
-6.1861209e-07 -2.2662800e-05 0.0000000e+00 
5.6501103e-05 3.2499497e-06 0.0000000e+00 
-6.8308632e-06 -1.9928866e-05 0.0000000e+00 
0.0000000e+00 0.0000000e+00 0.0000000e+00 
-1.1247757e-05 -1.8381421e-05 0.0000000e+00 
4.8008362e-05 2.1861397e-06 0.0000000e+00 
1.0187633e-04 3.5208490e-05 0.0000000e+00 
-2.7403990e-05 -1.9882315e-05 0.0000000e+00 
0.0000000e+00 0.0000000e+00 0.0000000e+00 
-2.3500383e-05 2.2418695e-05 0.0000000e+00 
-8.3270461e-05 2.2476991e-06 0.0000000e+00 
1.0128362e-04 7.8531637e-05 0.0000000e+00 
1.6516935e-04 1.1530882e-04 0.0000000e+00 
0.0000000e+00 0.0000000e+00 0.0000000e+00 
-1.7268535e-04 7.8450656e-05 0.0000000e+00 
-3.2076427e-05 1.5109011e-04 0.0000000e+00 
1.8778032e-04 2.8649266e-04 0.0000000e+00 
2.2509282e-04 2.7057284e-04 0.0000000e+00 
0.0000000e+00 0.0000000e+00 0.0000000e+00 
-3.6618658e-04 3.0009239e-04 0.0000000e+00 
-1.1579359e-05 4.7730448e-04 0.0000000e+00 
2.5991889e-04 7.0907827e-04 0.0000000e+00 
2.3059823e-04 5.0247682e-04 0.0000000e+00 
-6.2778150e-04 7.6228939e-04 0.0000000e+00 
0.0000000e+00 0.0000000e+00 0.0000000e+00 
1.3542552e-04 1.3139794e-03 0.0000000e+00 
2.2962960e-04 1.3376019e-03 0.0000000e+00 
1.1735187e-04 7.0142414e-04 0.0000000e+00 
-6.1810616e-04 2.3863080e-03 0.0000000e+00 
0.0000000e+00 0.0000000e+00 0.0000000e+00 
2.4276412e-04 2.7747927e-03 0.0000000e+00 
-6.1175415e-06 1.7279459e-03 0.0000000e+00 
-7.3250347e-05 7.0062059e-04 0.0000000e+00 
4.5050496e-05 5.2621020e-03 0.0000000e+00 
-2.9756525e-04 2.6142786e-03 0.0000000e+00 
0.0000000e+00 0.0000000e+00 0.0000000e+00 
-1.8679757e-04 1.2776783e-03 0.0000000e+00 
-1.4575163e-04 5.3813757e-04 0.0000000e+00 
5.1990466e-04 1.9109747e-03 0.0000000e+00 
-8.7972105e-05 1.2312877e-03 0.0000000e+00 
0.0000000e+00 0.0000000e+00 0.0000000e+00 
-1.5832880e-04 7.5723184e-04 0.0000000e+00 
-1.1686761e-04 3.0551245e-04 0.0000000e+00 
3.1438860e-04 9.6786773e-04 0.0000000e+00 
3.0090664e-06 8.3253084e-04 0.0000000e+00 
0.0000000e+00 0.0000000e+00 0.0000000e+00 
-1.3642869e-04 5.3653924e-04 0.0000000e+00 
-1.0621992e-04 2.5107485e-04 0.0000000e+00 
1.5892637e-04 1.0719738e-03 0.0000000e+00 
5.2616626e-05 9.3025347e-04 0.0000000e+00 
0.0000000e+00 0.0000000e+00 0.0000000e+00 
-1.2782817e-04 4.6355664e-04 0.0000000e+00 
-1.1136695e-04 1.8941102e-04 0.0000000e+00 
1.9078628e-04 1.7540761e-03 0.0000000e+00 
-1.0256385e-04 7.6611014e-04 0.0000000e+00 
0.0000000e+00 0.0000000e+00 0.0000000e+00 
-1.3053838e-04 2.9638445e-04 0.0000000e+00 
-1.0103083e-04 1.1446603e-04 0.0000000e+00 
2.6605622e-04 6.2073965e-04 0.0000000e+00 
-6.6291912e-05 3.3155998e-04 0.0000000e+00 
0.0000000e+00 0.0000000e+00 0.0000000e+00 
-1.1052712e-04 1.4883907e-04 0.0000000e+00 
2.1174528e-04 2.1101344e-04 0.0000000e+00 
-8.0543985e-05 6.0093920e-05 0.0000000e+00 
-1.0803339e-05 1.0330993e-04 0.0000000e+00 
0.0000000e+00 0.0000000e+00 0.0000000e+00 
-6.8340341e-05 5.0467603e-05 0.0000000e+00 
1.1753894e-04 6.7681700e-05 0.0000000e+00 
-5.0306684e-05 2.3112792e-05 0.0000000e+00 
-1.7516930e-06 2.1003960e-05 0.0000000e+00 
0.0000000e+00 0.0000000e+00 0.0000000e+00 
4.7860740e-05 6.8395429e-06 0.0000000e+00 
-2.5117743e-05 9.1036173e-07 0.0000000e+00 
0.0000000e+00 0.0000000e+00 0.0000000e+00 
-1.6639287e-05 2.5188992e-06 0.0000000e+00 
1.4728240e-06 -7.2038133e-06 0.0000000e+00 
1.7941562e-05 -3.6983909e-06 0.0000000e+00 
0.0000000e+00 0.0000000e+00 0.0000000e+00 
0.0000000e+00 0.0000000e+00 0.0000000e+00 
0.0000000e+00 0.0000000e+00 0.0000000e+00 
0.0000000e+00 0.0000000e+00 0.0000000e+00 
0.0000000e+00 0.0000000e+00 0.0000000e+00 
TOTAL_DISPLACEMENT 3 101  float
0.0000000e+00 0.0000000e+00 0.0000000e+00 
0.0000000e+00 0.0000000e+00 0.0000000e+00 
0.0000000e+00 0.0000000e+00 0.0000000e+00 
4.1834957e-18 2.0441023e-18 0.0000000e+00 
0.0000000e+00 0.0000000e+00 0.0000000e+00 
0.0000000e+00 0.0000000e+00 0.0000000e+00 
9.8857215e-18 3.2754764e-18 0.0000000e+00 
1.0318555e-17 5.7047669e-18 0.0000000e+00 
0.0000000e+00 0.0000000e+00 0.0000000e+00 
0.0000000e+00 0.0000000e+00 0.0000000e+00 
7.2215912e-18 1.0096633e-18 0.0000000e+00 
2.0709956e-17 8.7074987e-18 0.0000000e+00 
1.3976044e-17 5.9910640e-18 0.0000000e+00 
1.8094106e-17 7.0981361e-18 0.0000000e+00 
0.0000000e+00 0.0000000e+00 0.0000000e+00 
0.0000000e+00 0.0000000e+00 0.0000000e+00 
5.9711588e-18 -8.1399866e-19 0.0000000e+00 
3.3044449e-17 1.3823578e-17 0.0000000e+00 
1.2053702e-17 2.2531076e-18 0.0000000e+00 
2.9093464e-17 8.0569774e-18 0.0000000e+00 
2.1202929e-17 1.4436406e-17 0.0000000e+00 
2.1285938e-17 6.5865282e-18 0.0000000e+00 
0.0000000e+00 0.0000000e+00 0.0000000e+00 
4.6142967e-17 2.2337953e-17 0.0000000e+00 
4.9012714e-17 2.6212282e-17 0.0000000e+00 
2.7552288e-17 1.9644388e-17 0.0000000e+00 
3.0781177e-17 1.2342964e-17 0.0000000e+00 
0.0000000e+00 0.0000000e+00 0.0000000e+00 
6.5329957e-17 3.9912192e-17 0.0000000e+00 
4.5807542e-17 2.6903037e-17 0.0000000e+00 
7.1408266e-17 4.5238336e-17 0.0000000e+00 
3.7648920e-17 2.9951085e-17 0.0000000e+00 
0.0000000e+00 0.0000000e+00 0.0000000e+00 
6.9416044e-17 5.7652451e-17 0.0000000e+00 
8.8891026e-17 7.2207865e-17 0.0000000e+00 
8.1992789e-17 6.8196317e-17 0.0000000e+00 
3.1983964e-17 1.6046192e-17 0.0000000e+00 
0.0000000e+00 0.0000000e+00 0.0000000e+00 
1.1812383e-16 9.0314041e-17 0.0000000e+00 
1.0750542e-16 8.5814602e-17 0.0000000e+00 
8.4730400e-17 5.2800646e-17 0.0000000e+00 
3.4287894e-17 4.2717566e-17 0.0000000e+00 
1.7054500e-16 9.8337137e-17 0.0000000e+00 
0.0000000e+00 0.0000000e+00 0.0000000e+00 
1.1966881e-16 6.8738418e-17 0.0000000e+00 
1.0321605e-16 4.2717566e-17 0.0000000e+00 
1.3145951e-17 3.2526065e-19 0.0000000e+00 
1.1741910e-16 1.7650811e-16 0.0000000e+00 
0.0000000e+00 0.0000000e+00 0.0000000e+00 
8.3266727e-17 8.7169855e-17 0.0000000e+00 
5.6961272e-17 4.4235449e-17 0.0000000e+00 
-1.7347235e-17 1.0950442e-17 0.0000000e+00 
1.6579484e-16 8.5868812e-17 0.0000000e+00 
7.9959910e-17 8.8037216e-17 0.0000000e+00 
0.0000000e+00 0.0000000e+00 0.0000000e+00 
2.6346113e-17 -4.1416523e-17 0.0000000e+00 
-1.5991982e-17 -4.2283885e-17 0.0000000e+00 
1.2761060e-16 8.6302493e-17 0.0000000e+00 
3.8489177e-17 -6.3534247e-17 0.0000000e+00 
0.0000000e+00 0.0000000e+00 0.0000000e+00 
7.8604658e-18 -1.0538445e-16 0.0000000e+00 
-1.2427667e-17 -4.2229675e-17 0.0000000e+00 
9.0151411e-17 -1.3899472e-16 0.0000000e+00 
2.5981465e-17 -1.1600963e-16 0.0000000e+00 
0.0000000e+00 0.0000000e+00 0.0000000e+00 
-2.6020852e-18 -9.5843472e-17 0.0000000e+00 
6.6271858e-18 -2.6346113e-17 0.0000000e+00 
1.7997756e-17 -1.0668549e-16 0.0000000e+00 
8.6668411e-18 -1.0657707e-16 0.0000000e+00 
0.0000000e+00 0.0000000e+00 0.0000000e+00 
8.0230961e-18 -5.8601127e-17 0.0000000e+00 
9.1208508e-18 -2.6725584e-17 0.0000000e+00 
-5.6486933e-17 4.3368087e-19 0.0000000e+00 
-9.3919013e-18 -6.3859508e-17 0.0000000e+00 
0.0000000e+00 0.0000000e+00 0.0000000e+00 
2.1223258e-17 -5.3125906e-17 0.0000000e+00 
1.4623177e-17 -2.1236810e-17 0.0000000e+00 
-5.3559587e-17 -6.3642668e-17 0.0000000e+00 
-4.0522056e-18 -4.2609145e-17 0.0000000e+00 
0.0000000e+00 0.0000000e+00 0.0000000e+00 
1.4609624e-17 -2.3960868e-17 0.0000000e+00 
-4.0007060e-17 -3.9519169e-17 0.0000000e+00 
7.9688860e-18 -7.2844833e-18 0.0000000e+00 
-5.7801528e-18 -1.4392784e-17 0.0000000e+00 
0.0000000e+00 0.0000000e+00 0.0000000e+00 
3.8895753e-18 -6.5526469e-18 0.0000000e+00 
-2.1345230e-17 -6.5187656e-18 0.0000000e+00 
5.3193669e-18 -2.9476747e-18 0.0000000e+00 
-4.7203029e-18 -2.4394549e-19 0.0000000e+00 
0.0000000e+00 0.0000000e+00 0.0000000e+00 
-8.6871699e-18 1.6686549e-19 0.0000000e+00 
-3.6930637e-19 7.4740070e-19 0.0000000e+00 
0.0000000e+00 0.0000000e+00 0.0000000e+00 
6.5390944e-19 2.3081648e-19 0.0000000e+00 
-1.9655400e-18 5.9969933e-19 0.0000000e+00 
-3.6727349e-18 6.3103955e-20 0.0000000e+00 
0.0000000e+00 0.0000000e+00 0.0000000e+00 
0.0000000e+00 0.0000000e+00 0.0000000e+00 
0.0000000e+00 0.0000000e+00 0.0000000e+00 
0.0000000e+00 0.0000000e+00 0.0000000e+00 
0.0000000e+00 0.0000000e+00 0.0000000e+00 
CELL_DATA 38
FIELD FieldData 0
