# vtk DataFile Version 4.0
vtk output
ASCII
DATASET UNSTRUCTURED_GRID
POINTS 101 float
0.0000000e+00 0.0000000e+00 0.0000000e+00 
0.0000000e+00 2.5000000e-01 0.0000000e+00 
2.5000000e-01 0.0000000e+00 0.0000000e+00 
2.5000000e-01 2.5000000e-01 0.0000000e+00 
0.0000000e+00 5.0000000e-01 0.0000000e+00 
5.0000000e-01 0.0000000e+00 0.0000000e+00 
3.5416666e-01 5.0558227e-01 0.0000000e+00 
6.0416669e-01 2.5558227e-01 0.0000000e+00 
0.0000000e+00 7.5000000e-01 0.0000000e+00 
7.5000000e-01 0.0000000e+00 0.0000000e+00 
2.5000000e-01 7.5000000e-01 0.0000000e+00 
7.0833331e-01 5.1116455e-01 0.0000000e+00 
8.5416669e-01 2.5558227e-01 0.0000000e+00 
6.0416669e-01 7.5558227e-01 0.0000000e+00 
0.0000000e+00 1.0000000e+00 0.0000000e+00 
1.0000000e+00 0.0000000e+00 0.0000000e+00 
2.5000000e-01 1.0000000e+00 0.0000000e+00 
9.7916669e-01 5.3907591e-01 0.0000000e+00 
5.0000000e-01 1.0000000e+00 0.0000000e+00 
8.5416669e-01 7.5558227e-01 0.0000000e+00 
1.1250000e+00 2.8349364e-01 0.0000000e+00 
7.5000000e-01 1.0000000e+00 0.0000000e+00 
1.2500000e+00 0.0000000e+00 0.0000000e+00 
1.1250000e+00 7.8349364e-01 0.0000000e+00 
1.2500000e+00 5.6698728e-01 0.0000000e+00 
1.3750000e+00 2.8349364e-01 0.0000000e+00 
1.0000000e+00 1.0000000e+00 0.0000000e+00 
1.5000000e+00 0.0000000e+00 0.0000000e+00 
1.3750000e+00 7.8349364e-01 0.0000000e+00 
1.2500000e+00 1.0000000e+00 0.0000000e+00 
1.5000000e+00 5.6698728e-01 0.0000000e+00 
1.6250000e+00 2.8349364e-01 0.0000000e+00 
1.7500000e+00 0.0000000e+00 0.0000000e+00 
1.5000000e+00 1.0000000e+00 0.0000000e+00 
1.6250000e+00 7.8349364e-01 0.0000000e+00 
1.7500000e+00 5.6698728e-01 0.0000000e+00 
1.8750000e+00 2.8349364e-01 0.0000000e+00 
2.0000000e+00 0.0000000e+00 0.0000000e+00 
1.7500000e+00 1.0000000e+00 0.0000000e+00 
1.8750000e+00 7.8349364e-01 0.0000000e+00 
2.0000000e+00 5.6698728e-01 0.0000000e+00 
2.1250000e+00 2.8349364e-01 0.0000000e+00 
2.0000000e+00 1.0000000e+00 0.0000000e+00 
2.2500000e+00 0.0000000e+00 0.0000000e+00 
2.1250000e+00 7.8349364e-01 0.0000000e+00 
2.2500000e+00 5.6698728e-01 0.0000000e+00 
2.3750000e+00 2.8349364e-01 0.0000000e+00 
2.2500000e+00 1.0000000e+00 0.0000000e+00 
2.5000000e+00 0.0000000e+00 0.0000000e+00 
2.3750000e+00 7.8349364e-01 0.0000000e+00 
2.5000000e+00 5.6698728e-01 0.0000000e+00 
2.6250000e+00 2.8349364e-01 0.0000000e+00 
2.5000000e+00 1.0000000e+00 0.0000000e+00 
2.6250000e+00 7.8349364e-01 0.0000000e+00 
2.7500000e+00 0.0000000e+00 0.0000000e+00 
2.7500000e+00 5.6698728e-01 0.0000000e+00 
2.8750000e+00 2.8349364e-01 0.0000000e+00 
2.7500000e+00 1.0000000e+00 0.0000000e+00 
2.8750000e+00 7.8349364e-01 0.0000000e+00 
3.0000000e+00 0.0000000e+00 0.0000000e+00 
3.0000000e+00 5.0000000e-01 0.0000000e+00 
3.1250000e+00 2.1650635e-01 0.0000000e+00 
3.0000000e+00 1.0000000e+00 0.0000000e+00 
3.1250000e+00 7.1650636e-01 0.0000000e+00 
3.2500000e+00 0.0000000e+00 0.0000000e+00 
3.2500000e+00 4.3301269e-01 0.0000000e+00 
3.3750000e+00 2.1650635e-01 0.0000000e+00 
3.2500000e+00 1.0000000e+00 0.0000000e+00 
3.3750000e+00 7.1650636e-01 0.0000000e+00 
3.5000000e+00 0.0000000e+00 0.0000000e+00 
3.5000000e+00 4.3301269e-01 0.0000000e+00 
3.6250000e+00 2.1650635e-01 0.0000000e+00 
3.5000000e+00 1.0000000e+00 0.0000000e+00 
3.6250000e+00 7.1650636e-01 0.0000000e+00 
3.7500000e+00 0.0000000e+00 0.0000000e+00 
3.7500000e+00 4.3301269e-01 0.0000000e+00 
3.8750000e+00 2.1650635e-01 0.0000000e+00 
3.7500000e+00 1.0000000e+00 0.0000000e+00 
3.8750000e+00 7.1650636e-01 0.0000000e+00 
4.0000000e+00 0.0000000e+00 0.0000000e+00 
4.0208335e+00 4.6092409e-01 0.0000000e+00 
4.0000000e+00 1.0000000e+00 0.0000000e+00 
4.1458335e+00 2.4441773e-01 0.0000000e+00 
4.1458335e+00 7.4441773e-01 0.0000000e+00 
4.2500000e+00 0.0000000e+00 0.0000000e+00 
4.2916665e+00 4.8883545e-01 0.0000000e+00 
4.2500000e+00 1.0000000e+00 0.0000000e+00 
4.3958335e+00 2.4441773e-01 0.0000000e+00 
4.3958335e+00 7.4441773e-01 0.0000000e+00 
4.5000000e+00 0.0000000e+00 0.0000000e+00 
4.5000000e+00 1.0000000e+00 0.0000000e+00 
4.6458335e+00 4.9441773e-01 0.0000000e+00 
4.7500000e+00 0.0000000e+00 0.0000000e+00 
4.7500000e+00 2.5000000e-01 0.0000000e+00 
4.7500000e+00 7.5000000e-01 0.0000000e+00 
4.7500000e+00 1.0000000e+00 0.0000000e+00 
5.0000000e+00 0.0000000e+00 0.0000000e+00 
5.0000000e+00 2.5000000e-01 0.0000000e+00 
5.0000000e+00 5.0000000e-01 0.0000000e+00 
5.0000000e+00 7.5000000e-01 0.0000000e+00 
5.0000000e+00 1.0000000e+00 0.0000000e+00 

CELLS 38 266
6 0 5 4 2 3 1
6 79 89 85 84 87 82
6 62 52 55 57 53 58
6 85 89 98 87 93 91
6 79 85 75 82 80 76
6 55 52 45 53 49 50
6 75 85 81 80 83 78
6 79 75 69 76 71 74
6 45 52 42 49 47 44
6 55 45 48 50 46 51
6 69 75 65 71 70 66
6 65 75 72 70 73 68
6 69 65 59 66 61 64
6 59 65 55 61 60 56
6 37 48 45 43 46 41
6 100 90 98 95 94 99
6 26 18 11 21 13 19
6 11 18 4 13 10 6
6 26 11 24 19 17 23
6 24 11 15 17 12 20
6 26 24 33 23 28 29
6 33 24 35 28 30 34
6 35 24 27 30 25 31
6 33 35 42 34 39 38
6 42 35 45 39 40 44
6 45 35 37 40 36 41
6 15 27 24 22 25 20
6 96 98 89 97 93 92
6 81 72 75 77 73 78
6 14 4 18 8 10 16
6 5 15 11 9 12 7
6 48 59 55 54 56 51
6 90 81 85 86 83 88
6 27 37 35 32 36 31
6 72 62 65 67 63 68
6 62 55 65 58 60 63
6 90 85 98 88 91 94
6 5 11 4 7 6 3

CELL_TYPES 38
22
22
22
22
22
22
22
22
22
22
22
22
22
22
22
22
22
22
22
22
22
22
22
22
22
22
22
22
22
22
22
22
22
22
22
22
22
22
POINT_DATA 101
FIELD FieldData 2
DISPLACEMENT 3 101  float
0.0000000e+00 0.0000000e+00 0.0000000e+00 
0.0000000e+00 0.0000000e+00 0.0000000e+00 
0.0000000e+00 0.0000000e+00 0.0000000e+00 
2.5505315e-06 -1.8470869e-06 0.0000000e+00 
0.0000000e+00 0.0000000e+00 0.0000000e+00 
0.0000000e+00 0.0000000e+00 0.0000000e+00 
3.9167694e-06 -6.9569405e-06 0.0000000e+00 
1.1606699e-05 -5.1866696e-06 0.0000000e+00 
0.0000000e+00 0.0000000e+00 0.0000000e+00 
0.0000000e+00 0.0000000e+00 0.0000000e+00 
1.3847921e-06 -5.8689620e-06 0.0000000e+00 
1.2828225e-05 -1.5327249e-05 0.0000000e+00 
2.6164489e-05 -4.4714238e-06 0.0000000e+00 
1.8206564e-06 -1.7084816e-05 0.0000000e+00 
0.0000000e+00 0.0000000e+00 0.0000000e+00 
0.0000000e+00 0.0000000e+00 0.0000000e+00 
3.5131288e-06 -6.0057059e-06 0.0000000e+00 
2.6487547e-05 -1.5988930e-05 0.0000000e+00 
3.4666639e-06 -1.3976831e-05 0.0000000e+00 
-6.1861209e-07 -2.2662800e-05 0.0000000e+00 
5.6501103e-05 3.2499497e-06 0.0000000e+00 
-6.8308632e-06 -1.9928866e-05 0.0000000e+00 
0.0000000e+00 0.0000000e+00 0.0000000e+00 
-1.1247757e-05 -1.8381421e-05 0.0000000e+00 
4.8008362e-05 2.1861397e-06 0.0000000e+00 
1.0187633e-04 3.5208490e-05 0.0000000e+00 
-2.7403990e-05 -1.9882315e-05 0.0000000e+00 
0.0000000e+00 0.0000000e+00 0.0000000e+00 
-2.3500383e-05 2.2418695e-05 0.0000000e+00 
-8.3270461e-05 2.2476991e-06 0.0000000e+00 
1.0128362e-04 7.8531637e-05 0.0000000e+00 
1.6516935e-04 1.1530882e-04 0.0000000e+00 
0.0000000e+00 0.0000000e+00 0.0000000e+00 
-1.7268535e-04 7.8450656e-05 0.0000000e+00 
-3.2076427e-05 1.5109011e-04 0.0000000e+00 
1.8778032e-04 2.8649266e-04 0.0000000e+00 
2.2509282e-04 2.7057284e-04 0.0000000e+00 
0.0000000e+00 0.0000000e+00 0.0000000e+00 
-3.6618658e-04 3.0009239e-04 0.0000000e+00 
-1.1579359e-05 4.7730448e-04 0.0000000e+00 
2.5991889e-04 7.0907827e-04 0.0000000e+00 
2.3059823e-04 5.0247682e-04 0.0000000e+00 
-6.2778150e-04 7.6228939e-04 0.0000000e+00 
0.0000000e+00 0.0000000e+00 0.0000000e+00 
1.3542552e-04 1.3139794e-03 0.0000000e+00 
2.2962960e-04 1.3376019e-03 0.0000000e+00 
1.1735187e-04 7.0142414e-04 0.0000000e+00 
-6.1810616e-04 2.3863080e-03 0.0000000e+00 
0.0000000e+00 0.0000000e+00 0.0000000e+00 
2.4276412e-04 2.7747927e-03 0.0000000e+00 
-6.1175415e-06 1.7279459e-03 0.0000000e+00 
-7.3250347e-05 7.0062059e-04 0.0000000e+00 
4.5050496e-05 5.2621020e-03 0.0000000e+00 
-2.9756525e-04 2.6142786e-03 0.0000000e+00 
0.0000000e+00 0.0000000e+00 0.0000000e+00 
-1.8679757e-04 1.2776783e-03 0.0000000e+00 
-1.4575163e-04 5.3813757e-04 0.0000000e+00 
5.1990466e-04 1.9109747e-03 0.0000000e+00 
-8.7972105e-05 1.2312877e-03 0.0000000e+00 
0.0000000e+00 0.0000000e+00 0.0000000e+00 
-1.5832880e-04 7.5723184e-04 0.0000000e+00 
-1.1686761e-04 3.0551245e-04 0.0000000e+00 
3.1438860e-04 9.6786773e-04 0.0000000e+00 
3.0090664e-06 8.3253084e-04 0.0000000e+00 
0.0000000e+00 0.0000000e+00 0.0000000e+00 
-1.3642869e-04 5.3653924e-04 0.0000000e+00 
-1.0621992e-04 2.5107485e-04 0.0000000e+00 
1.5892637e-04 1.0719738e-03 0.0000000e+00 
5.2616626e-05 9.3025347e-04 0.0000000e+00 
0.0000000e+00 0.0000000e+00 0.0000000e+00 
-1.2782817e-04 4.6355664e-04 0.0000000e+00 
-1.1136695e-04 1.8941102e-04 0.0000000e+00 
1.9078628e-04 1.7540761e-03 0.0000000e+00 
-1.0256385e-04 7.6611014e-04 0.0000000e+00 
0.0000000e+00 0.0000000e+00 0.0000000e+00 
-1.3053838e-04 2.9638445e-04 0.0000000e+00 
-1.0103083e-04 1.1446603e-04 0.0000000e+00 
2.6605622e-04 6.2073965e-04 0.0000000e+00 
-6.6291912e-05 3.3155998e-04 0.0000000e+00 
0.0000000e+00 0.0000000e+00 0.0000000e+00 
-1.1052712e-04 1.4883907e-04 0.0000000e+00 
2.1174528e-04 2.1101344e-04 0.0000000e+00 
-8.0543985e-05 6.0093920e-05 0.0000000e+00 
-1.0803339e-05 1.0330993e-04 0.0000000e+00 
0.0000000e+00 0.0000000e+00 0.0000000e+00 
-6.8340341e-05 5.0467603e-05 0.0000000e+00 
1.1753894e-04 6.7681700e-05 0.0000000e+00 
-5.0306684e-05 2.3112792e-05 0.0000000e+00 
-1.7516930e-06 2.1003960e-05 0.0000000e+00 
0.0000000e+00 0.0000000e+00 0.0000000e+00 
4.7860740e-05 6.8395429e-06 0.0000000e+00 
-2.5117743e-05 9.1036173e-07 0.0000000e+00 
0.0000000e+00 0.0000000e+00 0.0000000e+00 
-1.6639287e-05 2.5188992e-06 0.0000000e+00 
1.4728240e-06 -7.2038133e-06 0.0000000e+00 
1.7941562e-05 -3.6983909e-06 0.0000000e+00 
0.0000000e+00 0.0000000e+00 0.0000000e+00 
0.0000000e+00 0.0000000e+00 0.0000000e+00 
0.0000000e+00 0.0000000e+00 0.0000000e+00 
0.0000000e+00 0.0000000e+00 0.0000000e+00 
0.0000000e+00 0.0000000e+00 0.0000000e+00 
TOTAL_DISPLACEMENT 3 101  float
0.0000000e+00 0.0000000e+00 0.0000000e+00 
0.0000000e+00 0.0000000e+00 0.0000000e+00 
0.0000000e+00 0.0000000e+00 0.0000000e+00 
1.8456848e-18 8.8790229e-19 0.0000000e+00 
0.0000000e+00 0.0000000e+00 0.0000000e+00 
0.0000000e+00 0.0000000e+00 0.0000000e+00 
4.1936601e-18 1.5475292e-18 0.0000000e+00 
4.4232061e-18 2.9095582e-18 0.0000000e+00 
0.0000000e+00 0.0000000e+00 0.0000000e+00 
0.0000000e+00 0.0000000e+00 0.0000000e+00 
2.7746682e-18 5.5226548e-19 0.0000000e+00 
8.6143251e-18 3.8285889e-18 0.0000000e+00 
5.6412394e-18 1.3662641e-18 0.0000000e+00 
6.3796404e-18 4.2521054e-18 0.0000000e+00 
0.0000000e+00 0.0000000e+00 0.0000000e+00 
0.0000000e+00 0.0000000e+00 0.0000000e+00 
1.8799896e-18 -3.5660087e-19 0.0000000e+00 
1.3528810e-17 4.6756219e-18 0.0000000e+00 
3.4647883e-18 1.7448879e-18 0.0000000e+00 
1.0689556e-17 1.7550523e-18 0.0000000e+00 
8.1925027e-18 5.4409161e-18 0.0000000e+00 
7.9197581e-18 3.1306338e-18 0.0000000e+00 
0.0000000e+00 0.0000000e+00 0.0000000e+00 
1.8089236e-17 9.3275268e-18 0.0000000e+00 
1.8926104e-17 8.9582205e-18 0.0000000e+00 
1.0476103e-17 6.2273862e-18 0.0000000e+00 
1.1875402e-17 4.8213115e-18 0.0000000e+00 
0.0000000e+00 0.0000000e+00 0.0000000e+00 
2.5688815e-17 1.5924219e-17 0.0000000e+00 
1.7347235e-17 1.0690826e-17 0.0000000e+00 
2.7498078e-17 1.6778029e-17 0.0000000e+00 
1.4880675e-17 1.1248598e-17 0.0000000e+00 
0.0000000e+00 0.0000000e+00 0.0000000e+00 
2.7132159e-17 2.2686930e-17 0.0000000e+00 
3.5223018e-17 2.6671373e-17 0.0000000e+00 
3.1577388e-17 2.5912432e-17 0.0000000e+00 
1.2468325e-17 6.2883726e-18 0.0000000e+00 
0.0000000e+00 0.0000000e+00 0.0000000e+00 
4.6566483e-17 3.5019730e-17 0.0000000e+00 
4.1945072e-17 3.3772898e-17 0.0000000e+00 
3.2688696e-17 2.0274581e-17 0.0000000e+00 
1.3145951e-17 1.6696713e-17 0.0000000e+00 
6.6461593e-17 3.9790220e-17 0.0000000e+00 
0.0000000e+00 0.0000000e+00 0.0000000e+00 
4.6485168e-17 2.9707140e-17 0.0000000e+00 
3.9790220e-17 1.6696713e-17 0.0000000e+00 
5.0144350e-18 3.2526065e-19 0.0000000e+00 
4.5861752e-17 7.2424705e-17 0.0000000e+00 
0.0000000e+00 0.0000000e+00 0.0000000e+00 
3.2851326e-17 3.5128150e-17 0.0000000e+00 
2.1944930e-17 1.8214596e-17 0.0000000e+00 
-6.7762636e-18 4.4452289e-18 0.0000000e+00 
6.4964039e-17 3.3827108e-17 0.0000000e+00 
3.1170812e-17 3.5995512e-17 0.0000000e+00 
0.0000000e+00 0.0000000e+00 0.0000000e+00 
1.0083080e-17 -1.5395671e-17 0.0000000e+00 
-6.2341625e-18 -1.6263033e-17 0.0000000e+00 
4.9548039e-17 3.4260789e-17 0.0000000e+00 
1.4907780e-17 -2.4502969e-17 0.0000000e+00 
0.0000000e+00 0.0000000e+00 0.0000000e+00 
2.9815560e-18 -4.0332321e-17 0.0000000e+00 
-5.1093027e-18 -1.6208822e-17 0.0000000e+00 
3.4857100e-17 -5.4426949e-17 0.0000000e+00 
1.0150419e-17 -4.4452289e-17 0.0000000e+00 
0.0000000e+00 0.0000000e+00 0.0000000e+00 
-9.7578196e-19 -3.7296555e-17 0.0000000e+00 
2.5614276e-18 -1.0083080e-17 0.0000000e+00 
6.6136333e-18 -4.1633363e-17 0.0000000e+00 
3.3813555e-18 -4.1524943e-17 0.0000000e+00 
0.0000000e+00 0.0000000e+00 0.0000000e+00 
3.1441863e-18 -2.2822456e-17 0.0000000e+00 
3.4287894e-18 -1.0462551e-17 0.0000000e+00 
-2.2334565e-17 4.3368087e-19 0.0000000e+00 
-3.6998399e-18 -2.4828230e-17 0.0000000e+00 
0.0000000e+00 0.0000000e+00 0.0000000e+00 
8.2128315e-18 -2.0599841e-17 0.0000000e+00 
5.6785089e-18 -8.2263840e-18 0.0000000e+00 
-2.1033522e-17 -2.4611389e-17 0.0000000e+00 
-1.6127507e-18 -1.6588293e-17 0.0000000e+00 
0.0000000e+00 0.0000000e+00 0.0000000e+00 
5.6649564e-18 -9.3241387e-18 0.0000000e+00 
-1.5612511e-17 -1.5124620e-17 0.0000000e+00 
3.0899762e-18 -2.8121494e-18 0.0000000e+00 
-2.3242584e-18 -5.4481159e-18 0.0000000e+00 
0.0000000e+00 0.0000000e+00 0.0000000e+00 
1.4501204e-18 -2.4868887e-18 0.0000000e+00 
-8.3348042e-18 -2.4530074e-18 0.0000000e+00 
2.0667604e-18 -1.1180835e-18 0.0000000e+00 
-1.8869776e-18 -4.0657581e-20 0.0000000e+00 
0.0000000e+00 0.0000000e+00 0.0000000e+00 
-3.4016843e-18 1.1604351e-19 0.0000000e+00 
-1.6601846e-19 3.2176664e-19 0.0000000e+00 
0.0000000e+00 0.0000000e+00 0.0000000e+00 
2.4733362e-19 1.0376154e-19 0.0000000e+00 
-7.8392899e-19 2.4394549e-19 0.0000000e+00 
-1.4365679e-18 3.7692966e-20 0.0000000e+00 
0.0000000e+00 0.0000000e+00 0.0000000e+00 
0.0000000e+00 0.0000000e+00 0.0000000e+00 
0.0000000e+00 0.0000000e+00 0.0000000e+00 
0.0000000e+00 0.0000000e+00 0.0000000e+00 
0.0000000e+00 0.0000000e+00 0.0000000e+00 
CELL_DATA 38
FIELD FieldData 0
