# vtk DataFile Version 4.0
vtk output
ASCII
DATASET UNSTRUCTURED_GRID
POINTS 101 float
0.0000000e+00 0.0000000e+00 0.0000000e+00 
0.0000000e+00 2.5000000e-01 0.0000000e+00 
2.5000000e-01 0.0000000e+00 0.0000000e+00 
2.5000000e-01 2.5000000e-01 0.0000000e+00 
0.0000000e+00 5.0000000e-01 0.0000000e+00 
5.0000000e-01 0.0000000e+00 0.0000000e+00 
3.5416666e-01 5.0558227e-01 0.0000000e+00 
6.0416669e-01 2.5558227e-01 0.0000000e+00 
0.0000000e+00 7.5000000e-01 0.0000000e+00 
7.5000000e-01 0.0000000e+00 0.0000000e+00 
2.5000000e-01 7.5000000e-01 0.0000000e+00 
7.0833331e-01 5.1116455e-01 0.0000000e+00 
8.5416669e-01 2.5558227e-01 0.0000000e+00 
6.0416669e-01 7.5558227e-01 0.0000000e+00 
0.0000000e+00 1.0000000e+00 0.0000000e+00 
1.0000000e+00 0.0000000e+00 0.0000000e+00 
2.5000000e-01 1.0000000e+00 0.0000000e+00 
9.7916669e-01 5.3907591e-01 0.0000000e+00 
5.0000000e-01 1.0000000e+00 0.0000000e+00 
8.5416669e-01 7.5558227e-01 0.0000000e+00 
1.1250000e+00 2.8349364e-01 0.0000000e+00 
7.5000000e-01 1.0000000e+00 0.0000000e+00 
1.2500000e+00 0.0000000e+00 0.0000000e+00 
1.1250000e+00 7.8349364e-01 0.0000000e+00 
1.2500000e+00 5.6698728e-01 0.0000000e+00 
1.3750000e+00 2.8349364e-01 0.0000000e+00 
1.0000000e+00 1.0000000e+00 0.0000000e+00 
1.5000000e+00 0.0000000e+00 0.0000000e+00 
1.3750000e+00 7.8349364e-01 0.0000000e+00 
1.2500000e+00 1.0000000e+00 0.0000000e+00 
1.5000000e+00 5.6698728e-01 0.0000000e+00 
1.6250000e+00 2.8349364e-01 0.0000000e+00 
1.7500000e+00 0.0000000e+00 0.0000000e+00 
1.5000000e+00 1.0000000e+00 0.0000000e+00 
1.6250000e+00 7.8349364e-01 0.0000000e+00 
1.7500000e+00 5.6698728e-01 0.0000000e+00 
1.8750000e+00 2.8349364e-01 0.0000000e+00 
2.0000000e+00 0.0000000e+00 0.0000000e+00 
1.7500000e+00 1.0000000e+00 0.0000000e+00 
1.8750000e+00 7.8349364e-01 0.0000000e+00 
2.0000000e+00 5.6698728e-01 0.0000000e+00 
2.1250000e+00 2.8349364e-01 0.0000000e+00 
2.0000000e+00 1.0000000e+00 0.0000000e+00 
2.2500000e+00 0.0000000e+00 0.0000000e+00 
2.1250000e+00 7.8349364e-01 0.0000000e+00 
2.2500000e+00 5.6698728e-01 0.0000000e+00 
2.3750000e+00 2.8349364e-01 0.0000000e+00 
2.2500000e+00 1.0000000e+00 0.0000000e+00 
2.5000000e+00 0.0000000e+00 0.0000000e+00 
2.3750000e+00 7.8349364e-01 0.0000000e+00 
2.5000000e+00 5.6698728e-01 0.0000000e+00 
2.6250000e+00 2.8349364e-01 0.0000000e+00 
2.5000000e+00 1.0000000e+00 0.0000000e+00 
2.6250000e+00 7.8349364e-01 0.0000000e+00 
2.7500000e+00 0.0000000e+00 0.0000000e+00 
2.7500000e+00 5.6698728e-01 0.0000000e+00 
2.8750000e+00 2.8349364e-01 0.0000000e+00 
2.7500000e+00 1.0000000e+00 0.0000000e+00 
2.8750000e+00 7.8349364e-01 0.0000000e+00 
3.0000000e+00 0.0000000e+00 0.0000000e+00 
3.0000000e+00 5.0000000e-01 0.0000000e+00 
3.1250000e+00 2.1650635e-01 0.0000000e+00 
3.0000000e+00 1.0000000e+00 0.0000000e+00 
3.1250000e+00 7.1650636e-01 0.0000000e+00 
3.2500000e+00 0.0000000e+00 0.0000000e+00 
3.2500000e+00 4.3301269e-01 0.0000000e+00 
3.3750000e+00 2.1650635e-01 0.0000000e+00 
3.2500000e+00 1.0000000e+00 0.0000000e+00 
3.3750000e+00 7.1650636e-01 0.0000000e+00 
3.5000000e+00 0.0000000e+00 0.0000000e+00 
3.5000000e+00 4.3301269e-01 0.0000000e+00 
3.6250000e+00 2.1650635e-01 0.0000000e+00 
3.5000000e+00 1.0000000e+00 0.0000000e+00 
3.6250000e+00 7.1650636e-01 0.0000000e+00 
3.7500000e+00 0.0000000e+00 0.0000000e+00 
3.7500000e+00 4.3301269e-01 0.0000000e+00 
3.8750000e+00 2.1650635e-01 0.0000000e+00 
3.7500000e+00 1.0000000e+00 0.0000000e+00 
3.8750000e+00 7.1650636e-01 0.0000000e+00 
4.0000000e+00 0.0000000e+00 0.0000000e+00 
4.0208335e+00 4.6092409e-01 0.0000000e+00 
4.0000000e+00 1.0000000e+00 0.0000000e+00 
4.1458335e+00 2.4441773e-01 0.0000000e+00 
4.1458335e+00 7.4441773e-01 0.0000000e+00 
4.2500000e+00 0.0000000e+00 0.0000000e+00 
4.2916665e+00 4.8883545e-01 0.0000000e+00 
4.2500000e+00 1.0000000e+00 0.0000000e+00 
4.3958335e+00 2.4441773e-01 0.0000000e+00 
4.3958335e+00 7.4441773e-01 0.0000000e+00 
4.5000000e+00 0.0000000e+00 0.0000000e+00 
4.5000000e+00 1.0000000e+00 0.0000000e+00 
4.6458335e+00 4.9441773e-01 0.0000000e+00 
4.7500000e+00 0.0000000e+00 0.0000000e+00 
4.7500000e+00 2.5000000e-01 0.0000000e+00 
4.7500000e+00 7.5000000e-01 0.0000000e+00 
4.7500000e+00 1.0000000e+00 0.0000000e+00 
5.0000000e+00 0.0000000e+00 0.0000000e+00 
5.0000000e+00 2.5000000e-01 0.0000000e+00 
5.0000000e+00 5.0000000e-01 0.0000000e+00 
5.0000000e+00 7.5000000e-01 0.0000000e+00 
5.0000000e+00 1.0000000e+00 0.0000000e+00 

CELLS 38 266
6 0 5 4 2 3 1
6 79 89 85 84 87 82
6 62 52 55 57 53 58
6 85 89 98 87 93 91
6 79 85 75 82 80 76
6 55 52 45 53 49 50
6 75 85 81 80 83 78
6 79 75 69 76 71 74
6 45 52 42 49 47 44
6 55 45 48 50 46 51
6 69 75 65 71 70 66
6 65 75 72 70 73 68
6 69 65 59 66 61 64
6 59 65 55 61 60 56
6 37 48 45 43 46 41
6 100 90 98 95 94 99
6 26 18 11 21 13 19
6 11 18 4 13 10 6
6 26 11 24 19 17 23
6 24 11 15 17 12 20
6 26 24 33 23 28 29
6 33 24 35 28 30 34
6 35 24 27 30 25 31
6 33 35 42 34 39 38
6 42 35 45 39 40 44
6 45 35 37 40 36 41
6 15 27 24 22 25 20
6 96 98 89 97 93 92
6 81 72 75 77 73 78
6 14 4 18 8 10 16
6 5 15 11 9 12 7
6 48 59 55 54 56 51
6 90 81 85 86 83 88
6 27 37 35 32 36 31
6 72 62 65 67 63 68
6 62 55 65 58 60 63
6 90 85 98 88 91 94
6 5 11 4 7 6 3

CELL_TYPES 38
22
22
22
22
22
22
22
22
22
22
22
22
22
22
22
22
22
22
22
22
22
22
22
22
22
22
22
22
22
22
22
22
22
22
22
22
22
22
POINT_DATA 101
FIELD FieldData 2
DISPLACEMENT 3 101  float
0.0000000e+00 0.0000000e+00 0.0000000e+00 
0.0000000e+00 0.0000000e+00 0.0000000e+00 
0.0000000e+00 0.0000000e+00 0.0000000e+00 
2.5505315e-06 -1.8470869e-06 0.0000000e+00 
0.0000000e+00 0.0000000e+00 0.0000000e+00 
0.0000000e+00 0.0000000e+00 0.0000000e+00 
3.9167694e-06 -6.9569405e-06 0.0000000e+00 
1.1606699e-05 -5.1866696e-06 0.0000000e+00 
0.0000000e+00 0.0000000e+00 0.0000000e+00 
0.0000000e+00 0.0000000e+00 0.0000000e+00 
1.3847921e-06 -5.8689620e-06 0.0000000e+00 
1.2828225e-05 -1.5327249e-05 0.0000000e+00 
2.6164489e-05 -4.4714238e-06 0.0000000e+00 
1.8206564e-06 -1.7084816e-05 0.0000000e+00 
0.0000000e+00 0.0000000e+00 0.0000000e+00 
0.0000000e+00 0.0000000e+00 0.0000000e+00 
3.5131288e-06 -6.0057059e-06 0.0000000e+00 
2.6487547e-05 -1.5988930e-05 0.0000000e+00 
3.4666639e-06 -1.3976831e-05 0.0000000e+00 
-6.1861209e-07 -2.2662800e-05 0.0000000e+00 
5.6501103e-05 3.2499497e-06 0.0000000e+00 
-6.8308632e-06 -1.9928866e-05 0.0000000e+00 
0.0000000e+00 0.0000000e+00 0.0000000e+00 
-1.1247757e-05 -1.8381421e-05 0.0000000e+00 
4.8008362e-05 2.1861397e-06 0.0000000e+00 
1.0187633e-04 3.5208490e-05 0.0000000e+00 
-2.7403990e-05 -1.9882315e-05 0.0000000e+00 
0.0000000e+00 0.0000000e+00 0.0000000e+00 
-2.3500383e-05 2.2418695e-05 0.0000000e+00 
-8.3270461e-05 2.2476991e-06 0.0000000e+00 
1.0128362e-04 7.8531637e-05 0.0000000e+00 
1.6516935e-04 1.1530882e-04 0.0000000e+00 
0.0000000e+00 0.0000000e+00 0.0000000e+00 
-1.7268535e-04 7.8450656e-05 0.0000000e+00 
-3.2076427e-05 1.5109011e-04 0.0000000e+00 
1.8778032e-04 2.8649266e-04 0.0000000e+00 
2.2509282e-04 2.7057284e-04 0.0000000e+00 
0.0000000e+00 0.0000000e+00 0.0000000e+00 
-3.6618658e-04 3.0009239e-04 0.0000000e+00 
-1.1579359e-05 4.7730448e-04 0.0000000e+00 
2.5991889e-04 7.0907827e-04 0.0000000e+00 
2.3059823e-04 5.0247682e-04 0.0000000e+00 
-6.2778150e-04 7.6228939e-04 0.0000000e+00 
0.0000000e+00 0.0000000e+00 0.0000000e+00 
1.3542552e-04 1.3139794e-03 0.0000000e+00 
2.2962960e-04 1.3376019e-03 0.0000000e+00 
1.1735187e-04 7.0142414e-04 0.0000000e+00 
-6.1810616e-04 2.3863080e-03 0.0000000e+00 
0.0000000e+00 0.0000000e+00 0.0000000e+00 
2.4276412e-04 2.7747927e-03 0.0000000e+00 
-6.1175415e-06 1.7279459e-03 0.0000000e+00 
-7.3250347e-05 7.0062059e-04 0.0000000e+00 
4.5050496e-05 5.2621020e-03 0.0000000e+00 
-2.9756525e-04 2.6142786e-03 0.0000000e+00 
0.0000000e+00 0.0000000e+00 0.0000000e+00 
-1.8679757e-04 1.2776783e-03 0.0000000e+00 
-1.4575163e-04 5.3813757e-04 0.0000000e+00 
5.1990466e-04 1.9109747e-03 0.0000000e+00 
-8.7972105e-05 1.2312877e-03 0.0000000e+00 
0.0000000e+00 0.0000000e+00 0.0000000e+00 
-1.5832880e-04 7.5723184e-04 0.0000000e+00 
-1.1686761e-04 3.0551245e-04 0.0000000e+00 
3.1438860e-04 9.6786773e-04 0.0000000e+00 
3.0090664e-06 8.3253084e-04 0.0000000e+00 
0.0000000e+00 0.0000000e+00 0.0000000e+00 
-1.3642869e-04 5.3653924e-04 0.0000000e+00 
-1.0621992e-04 2.5107485e-04 0.0000000e+00 
1.5892637e-04 1.0719738e-03 0.0000000e+00 
5.2616626e-05 9.3025347e-04 0.0000000e+00 
0.0000000e+00 0.0000000e+00 0.0000000e+00 
-1.2782817e-04 4.6355664e-04 0.0000000e+00 
-1.1136695e-04 1.8941102e-04 0.0000000e+00 
1.9078628e-04 1.7540761e-03 0.0000000e+00 
-1.0256385e-04 7.6611014e-04 0.0000000e+00 
0.0000000e+00 0.0000000e+00 0.0000000e+00 
-1.3053838e-04 2.9638445e-04 0.0000000e+00 
-1.0103083e-04 1.1446603e-04 0.0000000e+00 
2.6605622e-04 6.2073965e-04 0.0000000e+00 
-6.6291912e-05 3.3155998e-04 0.0000000e+00 
0.0000000e+00 0.0000000e+00 0.0000000e+00 
-1.1052712e-04 1.4883907e-04 0.0000000e+00 
2.1174528e-04 2.1101344e-04 0.0000000e+00 
-8.0543985e-05 6.0093920e-05 0.0000000e+00 
-1.0803339e-05 1.0330993e-04 0.0000000e+00 
0.0000000e+00 0.0000000e+00 0.0000000e+00 
-6.8340341e-05 5.0467603e-05 0.0000000e+00 
1.1753894e-04 6.7681700e-05 0.0000000e+00 
-5.0306684e-05 2.3112792e-05 0.0000000e+00 
-1.7516930e-06 2.1003960e-05 0.0000000e+00 
0.0000000e+00 0.0000000e+00 0.0000000e+00 
4.7860740e-05 6.8395429e-06 0.0000000e+00 
-2.5117743e-05 9.1036173e-07 0.0000000e+00 
0.0000000e+00 0.0000000e+00 0.0000000e+00 
-1.6639287e-05 2.5188992e-06 0.0000000e+00 
1.4728240e-06 -7.2038133e-06 0.0000000e+00 
1.7941562e-05 -3.6983909e-06 0.0000000e+00 
0.0000000e+00 0.0000000e+00 0.0000000e+00 
0.0000000e+00 0.0000000e+00 0.0000000e+00 
0.0000000e+00 0.0000000e+00 0.0000000e+00 
0.0000000e+00 0.0000000e+00 0.0000000e+00 
0.0000000e+00 0.0000000e+00 0.0000000e+00 
TOTAL_DISPLACEMENT 3 101  float
0.0000000e+00 0.0000000e+00 0.0000000e+00 
0.0000000e+00 0.0000000e+00 0.0000000e+00 
0.0000000e+00 0.0000000e+00 0.0000000e+00 
3.4042254e-18 1.6587023e-18 0.0000000e+00 
0.0000000e+00 0.0000000e+00 0.0000000e+00 
0.0000000e+00 0.0000000e+00 0.0000000e+00 
7.9883677e-18 2.6994940e-18 0.0000000e+00 
8.3534389e-18 4.7730307e-18 0.0000000e+00 
0.0000000e+00 0.0000000e+00 0.0000000e+00 
0.0000000e+00 0.0000000e+00 0.0000000e+00 
5.7392835e-18 8.5719734e-19 0.0000000e+00 
1.6678079e-17 7.0811954e-18 0.0000000e+00 
1.1197776e-17 4.4494641e-18 0.0000000e+00 
1.4189284e-17 6.1494592e-18 0.0000000e+00 
0.0000000e+00 0.0000000e+00 0.0000000e+00 
0.0000000e+00 0.0000000e+00 0.0000000e+00 
4.6074357e-18 -6.6153273e-19 0.0000000e+00 
2.6539236e-17 1.0774259e-17 0.0000000e+00 
9.1907310e-18 2.0837011e-18 0.0000000e+00 
2.2958828e-17 5.9563357e-18 0.0000000e+00 
1.6866120e-17 1.1437909e-17 0.0000000e+00 
1.6830545e-17 5.4345634e-18 0.0000000e+00 
0.0000000e+00 0.0000000e+00 0.0000000e+00 
3.6791723e-17 1.8001144e-17 0.0000000e+00 
3.8983844e-17 2.0460928e-17 0.0000000e+00 
2.1860226e-17 1.5172054e-17 0.0000000e+00 
2.4479252e-17 9.8357466e-18 0.0000000e+00 
0.0000000e+00 0.0000000e+00 0.0000000e+00 
5.2116243e-17 3.1916201e-17 0.0000000e+00 
3.6320773e-17 2.1498967e-17 0.0000000e+00 
5.6771536e-17 3.5751567e-17 0.0000000e+00 
3.0059505e-17 2.3716923e-17 0.0000000e+00 
0.0000000e+00 0.0000000e+00 0.0000000e+00 
5.5321416e-17 4.5997277e-17 0.0000000e+00 
7.1001690e-17 5.7029034e-17 0.0000000e+00 
6.5187656e-17 5.4101688e-17 0.0000000e+00 
2.5478751e-17 1.2793586e-17 0.0000000e+00 
0.0000000e+00 0.0000000e+00 0.0000000e+00 
9.4271379e-17 7.1882604e-17 0.0000000e+00 
8.5651972e-17 6.8467367e-17 0.0000000e+00 
6.7383165e-17 4.1958624e-17 0.0000000e+00 
2.7240580e-17 3.4043948e-17 0.0000000e+00 
1.3585053e-16 7.8821498e-17 0.0000000e+00 
0.0000000e+00 0.0000000e+00 0.0000000e+00 
9.5274266e-17 5.5727992e-17 0.0000000e+00 
8.2074104e-17 3.4043948e-17 0.0000000e+00 
1.0435446e-17 3.2526065e-19 0.0000000e+00 
9.3566647e-17 1.4181364e-16 0.0000000e+00 
0.0000000e+00 0.0000000e+00 0.0000000e+00 
6.6461593e-17 6.9822620e-17 0.0000000e+00 
4.5289158e-17 3.5561831e-17 0.0000000e+00 
-1.3823578e-17 8.7820376e-18 0.0000000e+00 
1.3218457e-16 6.8521577e-17 0.0000000e+00 
6.3696878e-17 7.0689982e-17 0.0000000e+00 
0.0000000e+00 0.0000000e+00 0.0000000e+00 
2.0925102e-17 -3.2742906e-17 0.0000000e+00 
-1.2739376e-17 -3.3610267e-17 0.0000000e+00 
1.0158974e-16 6.8955258e-17 0.0000000e+00 
3.0628711e-17 -5.0523821e-17 0.0000000e+00 
0.0000000e+00 0.0000000e+00 0.0000000e+00 
6.2341625e-18 -8.3700408e-17 0.0000000e+00 
-9.9882125e-18 -3.3556057e-17 0.0000000e+00 
7.1719974e-17 -1.1080546e-16 0.0000000e+00 
2.0704450e-17 -9.2157185e-17 0.0000000e+00 
0.0000000e+00 0.0000000e+00 0.0000000e+00 
-2.0599841e-18 -7.6327833e-17 0.0000000e+00 
5.2719331e-18 -2.0925102e-17 0.0000000e+00 
1.4203048e-17 -8.5001450e-17 0.0000000e+00 
6.9050126e-18 -8.4893030e-17 0.0000000e+00 
0.0000000e+00 0.0000000e+00 0.0000000e+00 
6.3967928e-18 -4.6674904e-17 0.0000000e+00 
7.2234970e-18 -2.1304573e-17 0.0000000e+00 
-4.5102810e-17 4.3368087e-19 0.0000000e+00 
-7.4945475e-18 -5.0849082e-17 0.0000000e+00 
0.0000000e+00 0.0000000e+00 0.0000000e+00 
1.6886449e-17 -4.2283885e-17 0.0000000e+00 
1.1641621e-17 -1.6900001e-17 0.0000000e+00 
-4.2717566e-17 -5.0632241e-17 0.0000000e+00 
-3.2390540e-18 -3.3935528e-17 0.0000000e+00 
0.0000000e+00 0.0000000e+00 0.0000000e+00 
1.1628068e-17 -1.9081958e-17 0.0000000e+00 
-3.1875544e-17 -3.1387653e-17 0.0000000e+00 
6.3425827e-18 -5.7937054e-18 0.0000000e+00 
-4.6281880e-18 -1.1411228e-17 0.0000000e+00 
0.0000000e+00 0.0000000e+00 0.0000000e+00 
3.0764237e-18 -5.1973942e-18 0.0000000e+00 
-1.7008422e-17 -5.1635128e-18 0.0000000e+00 
4.2351647e-18 -2.3378109e-18 0.0000000e+00 
-3.7758611e-18 -1.7618285e-19 0.0000000e+00 
0.0000000e+00 0.0000000e+00 0.0000000e+00 
-6.9253414e-18 1.4992483e-19 0.0000000e+00 
-3.0154373e-19 6.0552268e-19 0.0000000e+00 
0.0000000e+00 0.0000000e+00 0.0000000e+00 
5.1838416e-19 1.8846483e-19 0.0000000e+00 
-1.5716696e-18 4.8111471e-19 0.0000000e+00 
-2.9273459e-18 5.4633625e-20 0.0000000e+00 
0.0000000e+00 0.0000000e+00 0.0000000e+00 
0.0000000e+00 0.0000000e+00 0.0000000e+00 
0.0000000e+00 0.0000000e+00 0.0000000e+00 
0.0000000e+00 0.0000000e+00 0.0000000e+00 
0.0000000e+00 0.0000000e+00 0.0000000e+00 
CELL_DATA 38
FIELD FieldData 0
