# vtk DataFile Version 4.0
vtk output
ASCII
DATASET UNSTRUCTURED_GRID
POINTS 101 float
0.0000000e+00 0.0000000e+00 0.0000000e+00 
0.0000000e+00 2.5000000e-01 0.0000000e+00 
2.5000000e-01 0.0000000e+00 0.0000000e+00 
2.5000000e-01 2.5000000e-01 0.0000000e+00 
0.0000000e+00 5.0000000e-01 0.0000000e+00 
5.0000000e-01 0.0000000e+00 0.0000000e+00 
3.5416666e-01 5.0558227e-01 0.0000000e+00 
6.0416669e-01 2.5558227e-01 0.0000000e+00 
0.0000000e+00 7.5000000e-01 0.0000000e+00 
7.5000000e-01 0.0000000e+00 0.0000000e+00 
2.5000000e-01 7.5000000e-01 0.0000000e+00 
7.0833331e-01 5.1116455e-01 0.0000000e+00 
8.5416669e-01 2.5558227e-01 0.0000000e+00 
6.0416669e-01 7.5558227e-01 0.0000000e+00 
0.0000000e+00 1.0000000e+00 0.0000000e+00 
1.0000000e+00 0.0000000e+00 0.0000000e+00 
2.5000000e-01 1.0000000e+00 0.0000000e+00 
9.7916669e-01 5.3907591e-01 0.0000000e+00 
5.0000000e-01 1.0000000e+00 0.0000000e+00 
8.5416669e-01 7.5558227e-01 0.0000000e+00 
1.1250000e+00 2.8349364e-01 0.0000000e+00 
7.5000000e-01 1.0000000e+00 0.0000000e+00 
1.2500000e+00 0.0000000e+00 0.0000000e+00 
1.1250000e+00 7.8349364e-01 0.0000000e+00 
1.2500000e+00 5.6698728e-01 0.0000000e+00 
1.3750000e+00 2.8349364e-01 0.0000000e+00 
1.0000000e+00 1.0000000e+00 0.0000000e+00 
1.5000000e+00 0.0000000e+00 0.0000000e+00 
1.3750000e+00 7.8349364e-01 0.0000000e+00 
1.2500000e+00 1.0000000e+00 0.0000000e+00 
1.5000000e+00 5.6698728e-01 0.0000000e+00 
1.6250000e+00 2.8349364e-01 0.0000000e+00 
1.7500000e+00 0.0000000e+00 0.0000000e+00 
1.5000000e+00 1.0000000e+00 0.0000000e+00 
1.6250000e+00 7.8349364e-01 0.0000000e+00 
1.7500000e+00 5.6698728e-01 0.0000000e+00 
1.8750000e+00 2.8349364e-01 0.0000000e+00 
2.0000000e+00 0.0000000e+00 0.0000000e+00 
1.7500000e+00 1.0000000e+00 0.0000000e+00 
1.8750000e+00 7.8349364e-01 0.0000000e+00 
2.0000000e+00 5.6698728e-01 0.0000000e+00 
2.1250000e+00 2.8349364e-01 0.0000000e+00 
2.0000000e+00 1.0000000e+00 0.0000000e+00 
2.2500000e+00 0.0000000e+00 0.0000000e+00 
2.1250000e+00 7.8349364e-01 0.0000000e+00 
2.2500000e+00 5.6698728e-01 0.0000000e+00 
2.3750000e+00 2.8349364e-01 0.0000000e+00 
2.2500000e+00 1.0000000e+00 0.0000000e+00 
2.5000000e+00 0.0000000e+00 0.0000000e+00 
2.3750000e+00 7.8349364e-01 0.0000000e+00 
2.5000000e+00 5.6698728e-01 0.0000000e+00 
2.6250000e+00 2.8349364e-01 0.0000000e+00 
2.5000000e+00 1.0000000e+00 0.0000000e+00 
2.6250000e+00 7.8349364e-01 0.0000000e+00 
2.7500000e+00 0.0000000e+00 0.0000000e+00 
2.7500000e+00 5.6698728e-01 0.0000000e+00 
2.8750000e+00 2.8349364e-01 0.0000000e+00 
2.7500000e+00 1.0000000e+00 0.0000000e+00 
2.8750000e+00 7.8349364e-01 0.0000000e+00 
3.0000000e+00 0.0000000e+00 0.0000000e+00 
3.0000000e+00 5.0000000e-01 0.0000000e+00 
3.1250000e+00 2.1650635e-01 0.0000000e+00 
3.0000000e+00 1.0000000e+00 0.0000000e+00 
3.1250000e+00 7.1650636e-01 0.0000000e+00 
3.2500000e+00 0.0000000e+00 0.0000000e+00 
3.2500000e+00 4.3301269e-01 0.0000000e+00 
3.3750000e+00 2.1650635e-01 0.0000000e+00 
3.2500000e+00 1.0000000e+00 0.0000000e+00 
3.3750000e+00 7.1650636e-01 0.0000000e+00 
3.5000000e+00 0.0000000e+00 0.0000000e+00 
3.5000000e+00 4.3301269e-01 0.0000000e+00 
3.6250000e+00 2.1650635e-01 0.0000000e+00 
3.5000000e+00 1.0000000e+00 0.0000000e+00 
3.6250000e+00 7.1650636e-01 0.0000000e+00 
3.7500000e+00 0.0000000e+00 0.0000000e+00 
3.7500000e+00 4.3301269e-01 0.0000000e+00 
3.8750000e+00 2.1650635e-01 0.0000000e+00 
3.7500000e+00 1.0000000e+00 0.0000000e+00 
3.8750000e+00 7.1650636e-01 0.0000000e+00 
4.0000000e+00 0.0000000e+00 0.0000000e+00 
4.0208335e+00 4.6092409e-01 0.0000000e+00 
4.0000000e+00 1.0000000e+00 0.0000000e+00 
4.1458335e+00 2.4441773e-01 0.0000000e+00 
4.1458335e+00 7.4441773e-01 0.0000000e+00 
4.2500000e+00 0.0000000e+00 0.0000000e+00 
4.2916665e+00 4.8883545e-01 0.0000000e+00 
4.2500000e+00 1.0000000e+00 0.0000000e+00 
4.3958335e+00 2.4441773e-01 0.0000000e+00 
4.3958335e+00 7.4441773e-01 0.0000000e+00 
4.5000000e+00 0.0000000e+00 0.0000000e+00 
4.5000000e+00 1.0000000e+00 0.0000000e+00 
4.6458335e+00 4.9441773e-01 0.0000000e+00 
4.7500000e+00 0.0000000e+00 0.0000000e+00 
4.7500000e+00 2.5000000e-01 0.0000000e+00 
4.7500000e+00 7.5000000e-01 0.0000000e+00 
4.7500000e+00 1.0000000e+00 0.0000000e+00 
5.0000000e+00 0.0000000e+00 0.0000000e+00 
5.0000000e+00 2.5000000e-01 0.0000000e+00 
5.0000000e+00 5.0000000e-01 0.0000000e+00 
5.0000000e+00 7.5000000e-01 0.0000000e+00 
5.0000000e+00 1.0000000e+00 0.0000000e+00 

CELLS 38 266
6 0 5 4 2 3 1
6 79 89 85 84 87 82
6 62 52 55 57 53 58
6 85 89 98 87 93 91
6 79 85 75 82 80 76
6 55 52 45 53 49 50
6 75 85 81 80 83 78
6 79 75 69 76 71 74
6 45 52 42 49 47 44
6 55 45 48 50 46 51
6 69 75 65 71 70 66
6 65 75 72 70 73 68
6 69 65 59 66 61 64
6 59 65 55 61 60 56
6 37 48 45 43 46 41
6 100 90 98 95 94 99
6 26 18 11 21 13 19
6 11 18 4 13 10 6
6 26 11 24 19 17 23
6 24 11 15 17 12 20
6 26 24 33 23 28 29
6 33 24 35 28 30 34
6 35 24 27 30 25 31
6 33 35 42 34 39 38
6 42 35 45 39 40 44
6 45 35 37 40 36 41
6 15 27 24 22 25 20
6 96 98 89 97 93 92
6 81 72 75 77 73 78
6 14 4 18 8 10 16
6 5 15 11 9 12 7
6 48 59 55 54 56 51
6 90 81 85 86 83 88
6 27 37 35 32 36 31
6 72 62 65 67 63 68
6 62 55 65 58 60 63
6 90 85 98 88 91 94
6 5 11 4 7 6 3

CELL_TYPES 38
22
22
22
22
22
22
22
22
22
22
22
22
22
22
22
22
22
22
22
22
22
22
22
22
22
22
22
22
22
22
22
22
22
22
22
22
22
22
POINT_DATA 101
FIELD FieldData 2
DISPLACEMENT 3 101  float
0.0000000e+00 0.0000000e+00 0.0000000e+00 
0.0000000e+00 0.0000000e+00 0.0000000e+00 
0.0000000e+00 0.0000000e+00 0.0000000e+00 
3.5009129e-18 1.7297798e-18 0.0000000e+00 
0.0000000e+00 0.0000000e+00 0.0000000e+00 
0.0000000e+00 0.0000000e+00 0.0000000e+00 
8.5267018e-18 2.5814452e-18 0.0000000e+00 
8.8895181e-18 4.1710491e-18 0.0000000e+00 
0.0000000e+00 0.0000000e+00 0.0000000e+00 
0.0000000e+00 0.0000000e+00 0.0000000e+00 
6.6616900e-18 6.9146338e-19 0.0000000e+00 
1.8071418e-17 7.4572615e-18 0.0000000e+00 
1.2640705e-17 6.9378161e-18 0.0000000e+00 
1.7580960e-17 4.2251306e-18 0.0000000e+00 
0.0000000e+00 0.0000000e+00 0.0000000e+00 
0.0000000e+00 0.0000000e+00 0.0000000e+00 
6.1212201e-18 -6.6366324e-19 0.0000000e+00 
2.9224715e-17 1.3870302e-17 0.0000000e+00 
1.2872783e-17 7.6247751e-19 0.0000000e+00 
2.7602261e-17 9.4843570e-18 0.0000000e+00 
1.9224142e-17 1.3493893e-17 0.0000000e+00 
2.0030508e-17 5.0427221e-18 0.0000000e+00 
0.0000000e+00 0.0000000e+00 0.0000000e+00 
4.2065813e-17 1.9534380e-17 0.0000000e+00 
4.5313741e-17 2.5866929e-17 0.0000000e+00 
2.6152432e-17 2.0022385e-17 0.0000000e+00 
2.8334665e-17 1.1291512e-17 0.0000000e+00 
0.0000000e+00 0.0000000e+00 0.0000000e+00 
5.9567665e-17 3.6000783e-17 0.0000000e+00 
4.3102883e-17 2.4320908e-17 0.0000000e+00 
6.5835676e-17 4.3160557e-17 0.0000000e+00 
3.3221724e-17 2.8579719e-17 0.0000000e+00 
0.0000000e+00 0.0000000e+00 0.0000000e+00 
6.3033373e-17 5.2548938e-17 0.0000000e+00 
8.0262089e-17 6.7993439e-17 0.0000000e+00 
7.6668188e-17 6.2529150e-17 0.0000000e+00 
2.8865271e-17 1.3225977e-17 0.0000000e+00 
0.0000000e+00 0.0000000e+00 0.0000000e+00 
1.0717664e-16 8.3658083e-17 0.0000000e+00 
9.8342199e-17 7.6191679e-17 0.0000000e+00 
7.6304136e-17 5.3177655e-17 0.0000000e+00 
3.1987534e-17 3.7011704e-17 0.0000000e+00 
1.5344705e-16 8.5869772e-17 0.0000000e+00 
0.0000000e+00 0.0000000e+00 0.0000000e+00 
1.0992215e-16 5.2712981e-17 0.0000000e+00 
9.5287071e-17 4.4939227e-17 0.0000000e+00 
1.1662146e-17 -1.0680366e-18 0.0000000e+00 
1.0530525e-16 1.4342519e-16 0.0000000e+00 
0.0000000e+00 0.0000000e+00 0.0000000e+00 
7.5132789e-17 8.9313536e-17 0.0000000e+00 
5.2550523e-17 4.3103935e-17 0.0000000e+00 
-1.5973776e-17 6.0266043e-18 0.0000000e+00 
1.5105787e-16 9.4528877e-17 0.0000000e+00 
7.3199012e-17 7.2771062e-17 0.0000000e+00 
0.0000000e+00 0.0000000e+00 0.0000000e+00 
2.5489792e-17 -3.6803969e-17 0.0000000e+00 
-1.5190662e-17 -3.5609771e-17 0.0000000e+00 
1.1610191e-16 7.2957628e-17 0.0000000e+00 
3.4995355e-17 -5.7877377e-17 0.0000000e+00 
0.0000000e+00 0.0000000e+00 0.0000000e+00 
7.3973918e-18 -9.6290494e-17 0.0000000e+00 
-1.1512639e-17 -3.7485016e-17 0.0000000e+00 
8.4852558e-17 -1.3089973e-16 0.0000000e+00 
2.3756589e-17 -1.0912609e-16 0.0000000e+00 
0.0000000e+00 0.0000000e+00 0.0000000e+00 
-2.8683561e-18 -8.5774454e-17 0.0000000e+00 
6.6037133e-18 -2.6341277e-17 0.0000000e+00 
1.6541797e-17 -1.0451457e-16 0.0000000e+00 
8.2319244e-18 -9.2922975e-17 0.0000000e+00 
0.0000000e+00 0.0000000e+00 0.0000000e+00 
7.3023116e-18 -5.1309279e-17 0.0000000e+00 
8.2925295e-18 -2.4753693e-17 0.0000000e+00 
-5.2425122e-17 3.7776772e-18 0.0000000e+00 
-8.6642496e-18 -5.3879700e-17 0.0000000e+00 
0.0000000e+00 0.0000000e+00 0.0000000e+00 
1.8358274e-17 -4.9868228e-17 0.0000000e+00 
1.3120608e-17 -1.9601537e-17 0.0000000e+00 
-4.7434394e-17 -5.8685672e-17 0.0000000e+00 
-3.5068132e-18 -3.6876565e-17 0.0000000e+00 
0.0000000e+00 0.0000000e+00 0.0000000e+00 
1.2957325e-17 -2.1698901e-17 0.0000000e+00 
-3.7003160e-17 -3.6664185e-17 0.0000000e+00 
6.9511866e-18 -6.4854715e-18 0.0000000e+00 
-5.2548783e-18 -1.2872042e-17 0.0000000e+00 
0.0000000e+00 0.0000000e+00 0.0000000e+00 
3.5372117e-18 -5.8456858e-18 0.0000000e+00 
-1.9926174e-17 -6.4321689e-18 0.0000000e+00 
4.7824986e-18 -2.8087687e-18 0.0000000e+00 
-4.2512236e-18 -2.4126542e-19 0.0000000e+00 
0.0000000e+00 0.0000000e+00 0.0000000e+00 
-7.9818347e-18 1.0372645e-19 0.0000000e+00 
-2.5562660e-19 6.3698429e-19 0.0000000e+00 
0.0000000e+00 0.0000000e+00 0.0000000e+00 
7.5670069e-19 2.0923209e-19 0.0000000e+00 
-1.7662579e-18 5.5584738e-19 0.0000000e+00 
-3.3039523e-18 2.5219968e-20 0.0000000e+00 
0.0000000e+00 0.0000000e+00 0.0000000e+00 
0.0000000e+00 0.0000000e+00 0.0000000e+00 
0.0000000e+00 0.0000000e+00 0.0000000e+00 
0.0000000e+00 0.0000000e+00 0.0000000e+00 
0.0000000e+00 0.0000000e+00 0.0000000e+00 
TOTAL_DISPLACEMENT 3 101  float
0.0000000e+00 0.0000000e+00 0.0000000e+00 
0.0000000e+00 0.0000000e+00 0.0000000e+00 
0.0000000e+00 0.0000000e+00 0.0000000e+00 
7.6844086e-18 3.7738821e-18 0.0000000e+00 
0.0000000e+00 0.0000000e+00 0.0000000e+00 
0.0000000e+00 0.0000000e+00 0.0000000e+00 
1.8412423e-17 5.8569218e-18 0.0000000e+00 
1.9208074e-17 9.8758160e-18 0.0000000e+00 
0.0000000e+00 0.0000000e+00 0.0000000e+00 
0.0000000e+00 0.0000000e+00 0.0000000e+00 
1.3883282e-17 1.7011267e-18 0.0000000e+00 
3.8781374e-17 1.6164760e-17 0.0000000e+00 
2.6616748e-17 1.2928880e-17 0.0000000e+00 
3.5675066e-17 1.1323266e-17 0.0000000e+00 
0.0000000e+00 0.0000000e+00 0.0000000e+00 
0.0000000e+00 0.0000000e+00 0.0000000e+00 
1.2092379e-17 -1.4776619e-18 0.0000000e+00 
6.2269164e-17 2.7693880e-17 0.0000000e+00 
2.4926486e-17 3.0155852e-18 0.0000000e+00 
5.6695727e-17 1.7541334e-17 0.0000000e+00 
4.0427069e-17 2.7930299e-17 0.0000000e+00 
4.1316447e-17 1.1629250e-17 0.0000000e+00 
0.0000000e+00 0.0000000e+00 0.0000000e+00 
8.8208780e-17 4.1872333e-17 0.0000000e+00 
9.4326456e-17 5.2079212e-17 0.0000000e+00 
5.3704721e-17 3.9666771e-17 0.0000000e+00 
5.9115846e-17 2.3634476e-17 0.0000000e+00 
0.0000000e+00 0.0000000e+00 0.0000000e+00 
1.2489763e-16 7.5912979e-17 0.0000000e+00 
8.8910428e-17 5.1223947e-17 0.0000000e+00 
1.3724394e-16 8.8398893e-17 0.0000000e+00 
7.0870645e-17 5.8530804e-17 0.0000000e+00 
0.0000000e+00 0.0000000e+00 0.0000000e+00 
1.3244942e-16 1.1020139e-16 0.0000000e+00 
1.6915311e-16 1.4020130e-16 0.0000000e+00 
1.5866098e-16 1.3072547e-16 0.0000000e+00 
6.0849232e-17 2.9272168e-17 0.0000000e+00 
0.0000000e+00 0.0000000e+00 0.0000000e+00 
2.2530047e-16 1.7397212e-16 0.0000000e+00 
2.0584761e-16 1.6200627e-16 0.0000000e+00 
1.6103453e-16 1.0597830e-16 0.0000000e+00 
6.6275431e-17 7.9729266e-17 0.0000000e+00 
3.2399206e-16 1.8420692e-16 0.0000000e+00 
0.0000000e+00 0.0000000e+00 0.0000000e+00 
2.2959098e-16 1.2145140e-16 0.0000000e+00 
1.9850312e-16 8.7656793e-17 0.0000000e+00 
2.4808098e-17 -7.4277593e-19 0.0000000e+00 
2.2272435e-16 3.1993332e-16 0.0000000e+00 
0.0000000e+00 0.0000000e+00 0.0000000e+00 
1.5839952e-16 1.7648339e-16 0.0000000e+00 
1.0951179e-16 8.7339380e-17 0.0000000e+00 
-3.3321012e-17 1.6977047e-17 0.0000000e+00 
3.1685271e-16 1.8039769e-16 0.0000000e+00 
1.5315892e-16 1.6080828e-16 0.0000000e+00 
0.0000000e+00 0.0000000e+00 0.0000000e+00 
5.1835905e-17 -7.8220495e-17 0.0000000e+00 
-3.1182644e-17 -7.7893659e-17 0.0000000e+00 
2.4371250e-16 1.5926011e-16 0.0000000e+00 
7.3484535e-17 -1.2141162e-16 0.0000000e+00 
0.0000000e+00 0.0000000e+00 0.0000000e+00 
1.5257858e-17 -2.0167494e-16 0.0000000e+00 
-2.3940306e-17 -7.9714694e-17 0.0000000e+00 
1.7500397e-16 -2.6989445e-16 0.0000000e+00 
4.9738056e-17 -2.2513572e-16 0.0000000e+00 
0.0000000e+00 0.0000000e+00 0.0000000e+00 
-5.4704411e-18 -1.8161793e-16 0.0000000e+00 
1.3230899e-17 -5.2687388e-17 0.0000000e+00 
3.4539552e-17 -2.1120007e-16 0.0000000e+00 
1.6898766e-17 -1.9950006e-16 0.0000000e+00 
0.0000000e+00 0.0000000e+00 0.0000000e+00 
1.5325408e-17 -1.0991041e-16 0.0000000e+00 
1.7413379e-17 -5.1479278e-17 0.0000000e+00 
-1.0891205e-16 4.2113581e-18 0.0000000e+00 
-1.8056152e-17 -1.1773921e-16 0.0000000e+00 
0.0000000e+00 0.0000000e+00 0.0000000e+00 
3.9581532e-17 -1.0299413e-16 0.0000000e+00 
2.7743785e-17 -4.0838347e-17 0.0000000e+00 
-1.0099398e-16 -1.2232834e-16 0.0000000e+00 
-7.5590188e-18 -7.9485711e-17 0.0000000e+00 
0.0000000e+00 0.0000000e+00 0.0000000e+00 
2.7566949e-17 -4.5659768e-17 0.0000000e+00 
-7.7010217e-17 -7.6183354e-17 0.0000000e+00 
1.4920073e-17 -1.3769955e-17 0.0000000e+00 
-1.1035031e-17 -2.7264826e-17 0.0000000e+00 
0.0000000e+00 0.0000000e+00 0.0000000e+00 
7.4267865e-18 -1.2398332e-17 0.0000000e+00 
-4.1271406e-17 -1.2950934e-17 0.0000000e+00 
1.0101865e-17 -5.7564434e-18 0.0000000e+00 
-8.9715265e-18 -4.8521091e-19 0.0000000e+00 
0.0000000e+00 0.0000000e+00 0.0000000e+00 
-1.6669005e-17 2.7059192e-19 0.0000000e+00 
-6.2493299e-19 1.3843850e-18 0.0000000e+00 
0.0000000e+00 0.0000000e+00 0.0000000e+00 
1.4106101e-18 4.4004856e-19 0.0000000e+00 
-3.7317980e-18 1.1555467e-18 0.0000000e+00 
-6.9766870e-18 8.8323922e-20 0.0000000e+00 
0.0000000e+00 0.0000000e+00 0.0000000e+00 
0.0000000e+00 0.0000000e+00 0.0000000e+00 
0.0000000e+00 0.0000000e+00 0.0000000e+00 
0.0000000e+00 0.0000000e+00 0.0000000e+00 
0.0000000e+00 0.0000000e+00 0.0000000e+00 
CELL_DATA 38
FIELD FieldData 0
