# vtk DataFile Version 4.0
vtk output
ASCII
DATASET UNSTRUCTURED_GRID
POINTS 101 float
0.0000000e+00 0.0000000e+00 0.0000000e+00 
0.0000000e+00 2.5000000e-01 0.0000000e+00 
2.5000000e-01 0.0000000e+00 0.0000000e+00 
2.5000000e-01 2.5000000e-01 0.0000000e+00 
0.0000000e+00 5.0000000e-01 0.0000000e+00 
5.0000000e-01 0.0000000e+00 0.0000000e+00 
3.5416666e-01 5.0558227e-01 0.0000000e+00 
6.0416669e-01 2.5558227e-01 0.0000000e+00 
0.0000000e+00 7.5000000e-01 0.0000000e+00 
7.5000000e-01 0.0000000e+00 0.0000000e+00 
2.5000000e-01 7.5000000e-01 0.0000000e+00 
7.0833331e-01 5.1116455e-01 0.0000000e+00 
8.5416669e-01 2.5558227e-01 0.0000000e+00 
6.0416669e-01 7.5558227e-01 0.0000000e+00 
0.0000000e+00 1.0000000e+00 0.0000000e+00 
1.0000000e+00 0.0000000e+00 0.0000000e+00 
2.5000000e-01 1.0000000e+00 0.0000000e+00 
9.7916669e-01 5.3907591e-01 0.0000000e+00 
5.0000000e-01 1.0000000e+00 0.0000000e+00 
8.5416669e-01 7.5558227e-01 0.0000000e+00 
1.1250000e+00 2.8349364e-01 0.0000000e+00 
7.5000000e-01 1.0000000e+00 0.0000000e+00 
1.2500000e+00 0.0000000e+00 0.0000000e+00 
1.1250000e+00 7.8349364e-01 0.0000000e+00 
1.2500000e+00 5.6698728e-01 0.0000000e+00 
1.3750000e+00 2.8349364e-01 0.0000000e+00 
1.0000000e+00 1.0000000e+00 0.0000000e+00 
1.5000000e+00 0.0000000e+00 0.0000000e+00 
1.3750000e+00 7.8349364e-01 0.0000000e+00 
1.2500000e+00 1.0000000e+00 0.0000000e+00 
1.5000000e+00 5.6698728e-01 0.0000000e+00 
1.6250000e+00 2.8349364e-01 0.0000000e+00 
1.7500000e+00 0.0000000e+00 0.0000000e+00 
1.5000000e+00 1.0000000e+00 0.0000000e+00 
1.6250000e+00 7.8349364e-01 0.0000000e+00 
1.7500000e+00 5.6698728e-01 0.0000000e+00 
1.8750000e+00 2.8349364e-01 0.0000000e+00 
2.0000000e+00 0.0000000e+00 0.0000000e+00 
1.7500000e+00 1.0000000e+00 0.0000000e+00 
1.8750000e+00 7.8349364e-01 0.0000000e+00 
2.0000000e+00 5.6698728e-01 0.0000000e+00 
2.1250000e+00 2.8349364e-01 0.0000000e+00 
2.0000000e+00 1.0000000e+00 0.0000000e+00 
2.2500000e+00 0.0000000e+00 0.0000000e+00 
2.1250000e+00 7.8349364e-01 0.0000000e+00 
2.2500000e+00 5.6698728e-01 0.0000000e+00 
2.3750000e+00 2.8349364e-01 0.0000000e+00 
2.2500000e+00 1.0000000e+00 0.0000000e+00 
2.5000000e+00 0.0000000e+00 0.0000000e+00 
2.3750000e+00 7.8349364e-01 0.0000000e+00 
2.5000000e+00 5.6698728e-01 0.0000000e+00 
2.6250000e+00 2.8349364e-01 0.0000000e+00 
2.5000000e+00 1.0000000e+00 0.0000000e+00 
2.6250000e+00 7.8349364e-01 0.0000000e+00 
2.7500000e+00 0.0000000e+00 0.0000000e+00 
2.7500000e+00 5.6698728e-01 0.0000000e+00 
2.8750000e+00 2.8349364e-01 0.0000000e+00 
2.7500000e+00 1.0000000e+00 0.0000000e+00 
2.8750000e+00 7.8349364e-01 0.0000000e+00 
3.0000000e+00 0.0000000e+00 0.0000000e+00 
3.0000000e+00 5.0000000e-01 0.0000000e+00 
3.1250000e+00 2.1650635e-01 0.0000000e+00 
3.0000000e+00 1.0000000e+00 0.0000000e+00 
3.1250000e+00 7.1650636e-01 0.0000000e+00 
3.2500000e+00 0.0000000e+00 0.0000000e+00 
3.2500000e+00 4.3301269e-01 0.0000000e+00 
3.3750000e+00 2.1650635e-01 0.0000000e+00 
3.2500000e+00 1.0000000e+00 0.0000000e+00 
3.3750000e+00 7.1650636e-01 0.0000000e+00 
3.5000000e+00 0.0000000e+00 0.0000000e+00 
3.5000000e+00 4.3301269e-01 0.0000000e+00 
3.6250000e+00 2.1650635e-01 0.0000000e+00 
3.5000000e+00 1.0000000e+00 0.0000000e+00 
3.6250000e+00 7.1650636e-01 0.0000000e+00 
3.7500000e+00 0.0000000e+00 0.0000000e+00 
3.7500000e+00 4.3301269e-01 0.0000000e+00 
3.8750000e+00 2.1650635e-01 0.0000000e+00 
3.7500000e+00 1.0000000e+00 0.0000000e+00 
3.8750000e+00 7.1650636e-01 0.0000000e+00 
4.0000000e+00 0.0000000e+00 0.0000000e+00 
4.0208335e+00 4.6092409e-01 0.0000000e+00 
4.0000000e+00 1.0000000e+00 0.0000000e+00 
4.1458335e+00 2.4441773e-01 0.0000000e+00 
4.1458335e+00 7.4441773e-01 0.0000000e+00 
4.2500000e+00 0.0000000e+00 0.0000000e+00 
4.2916665e+00 4.8883545e-01 0.0000000e+00 
4.2500000e+00 1.0000000e+00 0.0000000e+00 
4.3958335e+00 2.4441773e-01 0.0000000e+00 
4.3958335e+00 7.4441773e-01 0.0000000e+00 
4.5000000e+00 0.0000000e+00 0.0000000e+00 
4.5000000e+00 1.0000000e+00 0.0000000e+00 
4.6458335e+00 4.9441773e-01 0.0000000e+00 
4.7500000e+00 0.0000000e+00 0.0000000e+00 
4.7500000e+00 2.5000000e-01 0.0000000e+00 
4.7500000e+00 7.5000000e-01 0.0000000e+00 
4.7500000e+00 1.0000000e+00 0.0000000e+00 
5.0000000e+00 0.0000000e+00 0.0000000e+00 
5.0000000e+00 2.5000000e-01 0.0000000e+00 
5.0000000e+00 5.0000000e-01 0.0000000e+00 
5.0000000e+00 7.5000000e-01 0.0000000e+00 
5.0000000e+00 1.0000000e+00 0.0000000e+00 

CELLS 38 266
6 0 5 4 2 3 1
6 79 89 85 84 87 82
6 62 52 55 57 53 58
6 85 89 98 87 93 91
6 79 85 75 82 80 76
6 55 52 45 53 49 50
6 75 85 81 80 83 78
6 79 75 69 76 71 74
6 45 52 42 49 47 44
6 55 45 48 50 46 51
6 69 75 65 71 70 66
6 65 75 72 70 73 68
6 69 65 59 66 61 64
6 59 65 55 61 60 56
6 37 48 45 43 46 41
6 100 90 98 95 94 99
6 26 18 11 21 13 19
6 11 18 4 13 10 6
6 26 11 24 19 17 23
6 24 11 15 17 12 20
6 26 24 33 23 28 29
6 33 24 35 28 30 34
6 35 24 27 30 25 31
6 33 35 42 34 39 38
6 42 35 45 39 40 44
6 45 35 37 40 36 41
6 15 27 24 22 25 20
6 96 98 89 97 93 92
6 81 72 75 77 73 78
6 14 4 18 8 10 16
6 5 15 11 9 12 7
6 48 59 55 54 56 51
6 90 81 85 86 83 88
6 27 37 35 32 36 31
6 72 62 65 67 63 68
6 62 55 65 58 60 63
6 90 85 98 88 91 94
6 5 11 4 7 6 3

CELL_TYPES 38
22
22
22
22
22
22
22
22
22
22
22
22
22
22
22
22
22
22
22
22
22
22
22
22
22
22
22
22
22
22
22
22
22
22
22
22
22
22
POINT_DATA 101
FIELD FieldData 2
DISPLACEMENT 3 101  float
0.0000000e+00 0.0000000e+00 0.0000000e+00 
0.0000000e+00 0.0000000e+00 0.0000000e+00 
0.0000000e+00 0.0000000e+00 0.0000000e+00 
2.7229322e-18 1.3453842e-18 0.0000000e+00 
0.0000000e+00 0.0000000e+00 0.0000000e+00 
0.0000000e+00 0.0000000e+00 0.0000000e+00 
6.6318792e-18 2.0077907e-18 0.0000000e+00 
6.9140698e-18 3.2441492e-18 0.0000000e+00 
0.0000000e+00 0.0000000e+00 0.0000000e+00 
0.0000000e+00 0.0000000e+00 0.0000000e+00 
5.1813146e-18 5.3780487e-19 0.0000000e+00 
1.4055547e-17 5.8000924e-18 0.0000000e+00 
9.8316595e-18 5.3960792e-18 0.0000000e+00 
1.3674080e-17 3.2862126e-18 0.0000000e+00 
0.0000000e+00 0.0000000e+00 0.0000000e+00 
0.0000000e+00 0.0000000e+00 0.0000000e+00 
4.7609489e-18 -5.1618252e-19 0.0000000e+00 
2.2730334e-17 1.0788013e-17 0.0000000e+00 
1.0012164e-17 5.9303809e-19 0.0000000e+00 
2.1468426e-17 7.3767223e-18 0.0000000e+00 
1.4952110e-17 1.0495250e-17 0.0000000e+00 
1.5579285e-17 3.9221170e-18 0.0000000e+00 
0.0000000e+00 0.0000000e+00 0.0000000e+00 
3.2717855e-17 1.5193407e-17 0.0000000e+00 
3.5244022e-17 2.0118723e-17 0.0000000e+00 
2.0340780e-17 1.5572965e-17 0.0000000e+00 
2.2038073e-17 8.7822866e-18 0.0000000e+00 
0.0000000e+00 0.0000000e+00 0.0000000e+00 
4.6330409e-17 2.8000610e-17 0.0000000e+00 
3.3524466e-17 1.8916262e-17 0.0000000e+00 
5.1205527e-17 3.3569322e-17 0.0000000e+00 
2.5839119e-17 2.2228669e-17 0.0000000e+00 
0.0000000e+00 0.0000000e+00 0.0000000e+00 
4.9025956e-17 4.0871394e-17 0.0000000e+00 
6.2426070e-17 5.2883784e-17 0.0000000e+00 
5.9630815e-17 4.8633783e-17 0.0000000e+00 
2.2450765e-17 1.0286871e-17 0.0000000e+00 
0.0000000e+00 0.0000000e+00 0.0000000e+00 
8.3359609e-17 6.5067397e-17 0.0000000e+00 
7.6488379e-17 5.9260192e-17 0.0000000e+00 
5.9347661e-17 4.1360400e-17 0.0000000e+00 
2.4879194e-17 2.8786881e-17 0.0000000e+00 
1.1934771e-16 6.6787602e-17 0.0000000e+00 
0.0000000e+00 0.0000000e+00 0.0000000e+00 
8.5495006e-17 4.0998985e-17 0.0000000e+00 
7.4112167e-17 3.4952732e-17 0.0000000e+00 
9.0705582e-18 -8.3069510e-19 0.0000000e+00 
8.1904082e-17 1.1155293e-16 0.0000000e+00 
0.0000000e+00 0.0000000e+00 0.0000000e+00 
5.8436611e-17 6.9466085e-17 0.0000000e+00 
4.0872629e-17 3.3525283e-17 0.0000000e+00 
-1.2424048e-17 4.6873587e-18 0.0000000e+00 
1.1748945e-16 7.3522460e-17 0.0000000e+00 
5.6932565e-17 5.6599714e-17 0.0000000e+00 
0.0000000e+00 0.0000000e+00 0.0000000e+00 
1.9825393e-17 -2.8625310e-17 0.0000000e+00 
-1.1814960e-17 -2.7696488e-17 0.0000000e+00 
9.0301488e-17 5.6744822e-17 0.0000000e+00 
2.7218610e-17 -4.5015738e-17 0.0000000e+00 
0.0000000e+00 0.0000000e+00 0.0000000e+00 
5.7535267e-18 -7.4892608e-17 0.0000000e+00 
-8.9542748e-18 -2.9155013e-17 0.0000000e+00 
6.5996433e-17 -1.0181090e-16 0.0000000e+00 
1.8477347e-17 -8.4875851e-17 0.0000000e+00 
0.0000000e+00 0.0000000e+00 0.0000000e+00 
-2.2309435e-18 -6.6713466e-17 0.0000000e+00 
5.1362217e-18 -2.0487661e-17 0.0000000e+00 
1.2865842e-17 -8.1289110e-17 0.0000000e+00 
6.4026079e-18 -7.2273424e-17 0.0000000e+00 
0.0000000e+00 0.0000000e+00 0.0000000e+00 
5.6795755e-18 -3.9907216e-17 0.0000000e+00 
6.4497448e-18 -1.9252872e-17 0.0000000e+00 
-4.0775094e-17 2.9381935e-18 0.0000000e+00 
-6.7388610e-18 -4.1906432e-17 0.0000000e+00 
0.0000000e+00 0.0000000e+00 0.0000000e+00 
1.4278658e-17 -3.8786400e-17 0.0000000e+00 
1.0204917e-17 -1.5245640e-17 0.0000000e+00 
-3.6893417e-17 -4.5644409e-17 0.0000000e+00 
-2.7275216e-18 -2.8681773e-17 0.0000000e+00 
0.0000000e+00 0.0000000e+00 0.0000000e+00 
1.0077919e-17 -1.6876923e-17 0.0000000e+00 
-2.8780237e-17 -2.8516588e-17 0.0000000e+00 
5.4064785e-18 -5.0442557e-18 0.0000000e+00 
-4.0871275e-18 -1.0011589e-17 0.0000000e+00 
0.0000000e+00 0.0000000e+00 0.0000000e+00 
2.7511647e-18 -4.5466446e-18 0.0000000e+00 
-1.5498135e-17 -5.0027979e-18 0.0000000e+00 
3.7197212e-18 -2.1845979e-18 0.0000000e+00 
-3.3065075e-18 -1.8765090e-19 0.0000000e+00 
0.0000000e+00 0.0000000e+00 0.0000000e+00 
-6.2080935e-18 8.0676121e-20 0.0000000e+00 
-1.9882069e-19 4.9543223e-19 0.0000000e+00 
0.0000000e+00 0.0000000e+00 0.0000000e+00 
5.8854495e-19 1.6273608e-19 0.0000000e+00 
-1.3737562e-18 4.3232574e-19 0.0000000e+00 
-2.5697406e-18 1.9615530e-20 0.0000000e+00 
0.0000000e+00 0.0000000e+00 0.0000000e+00 
0.0000000e+00 0.0000000e+00 0.0000000e+00 
0.0000000e+00 0.0000000e+00 0.0000000e+00 
0.0000000e+00 0.0000000e+00 0.0000000e+00 
0.0000000e+00 0.0000000e+00 0.0000000e+00 
TOTAL_DISPLACEMENT 3 101  float
0.0000000e+00 0.0000000e+00 0.0000000e+00 
0.0000000e+00 0.0000000e+00 0.0000000e+00 
0.0000000e+00 0.0000000e+00 0.0000000e+00 
6.9064279e-18 3.3894865e-18 0.0000000e+00 
0.0000000e+00 0.0000000e+00 0.0000000e+00 
0.0000000e+00 0.0000000e+00 0.0000000e+00 
1.6517601e-17 5.2832671e-18 0.0000000e+00 
1.7232626e-17 8.9489163e-18 0.0000000e+00 
0.0000000e+00 0.0000000e+00 0.0000000e+00 
0.0000000e+00 0.0000000e+00 0.0000000e+00 
1.2402906e-17 1.5474682e-18 0.0000000e+00 
3.4765504e-17 1.4507592e-17 0.0000000e+00 
2.3807702e-17 1.1387143e-17 0.0000000e+00 
3.1768186e-17 1.0384348e-17 0.0000000e+00 
0.0000000e+00 0.0000000e+00 0.0000000e+00 
0.0000000e+00 0.0000000e+00 0.0000000e+00 
1.0732108e-17 -1.3301812e-18 0.0000000e+00 
5.5774784e-17 2.4611591e-17 0.0000000e+00 
2.2065867e-17 2.8461457e-18 0.0000000e+00 
5.0561888e-17 1.5433700e-17 0.0000000e+00 
3.6155039e-17 2.4931657e-17 0.0000000e+00 
3.6865223e-17 1.0508646e-17 0.0000000e+00 
0.0000000e+00 0.0000000e+00 0.0000000e+00 
7.8860825e-17 3.7531358e-17 0.0000000e+00 
8.4256736e-17 4.6331005e-17 0.0000000e+00 
4.7893069e-17 3.5217354e-17 0.0000000e+00 
5.2819251e-17 2.1125252e-17 0.0000000e+00 
0.0000000e+00 0.0000000e+00 0.0000000e+00 
1.1166037e-16 6.7912805e-17 0.0000000e+00 
7.9332007e-17 4.5819298e-17 0.0000000e+00 
1.2261379e-16 7.8807661e-17 0.0000000e+00 
6.3488038e-17 5.2179754e-17 0.0000000e+00 
0.0000000e+00 0.0000000e+00 0.0000000e+00 
1.1844201e-16 9.8523848e-17 0.0000000e+00 
1.5131709e-16 1.2509165e-16 0.0000000e+00 
1.4162360e-16 1.1683010e-16 0.0000000e+00 
5.4434731e-17 2.6333063e-17 0.0000000e+00 
0.0000000e+00 0.0000000e+00 0.0000000e+00 
2.0148344e-16 1.5538144e-16 0.0000000e+00 
1.8399379e-16 1.4507480e-16 0.0000000e+00 
1.4407805e-16 9.4161046e-17 0.0000000e+00 
5.9167084e-17 7.1504444e-17 0.0000000e+00 
2.8989271e-16 1.6512475e-16 0.0000000e+00 
0.0000000e+00 0.0000000e+00 0.0000000e+00 
2.0516382e-16 1.0973741e-16 0.0000000e+00 
1.7732821e-16 7.7670301e-17 0.0000000e+00 
2.2216510e-17 -5.0543444e-19 0.0000000e+00 
1.9932318e-16 2.8806106e-16 0.0000000e+00 
0.0000000e+00 0.0000000e+00 0.0000000e+00 
1.4170333e-16 1.5663594e-16 0.0000000e+00 
9.7833900e-17 7.7760728e-17 0.0000000e+00 
-2.9771282e-17 1.5637802e-17 0.0000000e+00 
2.8328429e-16 1.5939127e-16 0.0000000e+00 
1.3689248e-16 1.4463692e-16 0.0000000e+00 
0.0000000e+00 0.0000000e+00 0.0000000e+00 
4.6171508e-17 -7.0041829e-17 0.0000000e+00 
-2.7806944e-17 -6.9980373e-17 0.0000000e+00 
2.1791208e-16 1.4304731e-16 0.0000000e+00 
6.5707787e-17 -1.0854999e-16 0.0000000e+00 
0.0000000e+00 0.0000000e+00 0.0000000e+00 
1.3613992e-17 -1.8027705e-16 0.0000000e+00 
-2.1381942e-17 -7.1384688e-17 0.0000000e+00 
1.5614785e-16 -2.4080562e-16 0.0000000e+00 
4.4458814e-17 -2.0088548e-16 0.0000000e+00 
0.0000000e+00 0.0000000e+00 0.0000000e+00 
-4.8330290e-18 -1.6255694e-16 0.0000000e+00 
1.1763407e-17 -4.6833772e-17 0.0000000e+00 
3.0863598e-17 -1.8797461e-16 0.0000000e+00 
1.5069449e-17 -1.7885050e-16 0.0000000e+00 
0.0000000e+00 0.0000000e+00 0.0000000e+00 
1.3702672e-17 -9.8508344e-17 0.0000000e+00 
1.5570596e-17 -4.5978457e-17 0.0000000e+00 
-9.7262027e-17 3.3718744e-18 0.0000000e+00 
-1.6130763e-17 -1.0576594e-16 0.0000000e+00 
0.0000000e+00 0.0000000e+00 0.0000000e+00 
3.5501914e-17 -9.1912306e-17 0.0000000e+00 
2.4828094e-17 -3.6482450e-17 0.0000000e+00 
-9.0453001e-17 -1.0928708e-16 0.0000000e+00 
-6.7797270e-18 -7.1290918e-17 0.0000000e+00 
0.0000000e+00 0.0000000e+00 0.0000000e+00 
2.4687543e-17 -4.0837791e-17 0.0000000e+00 
-6.8787294e-17 -6.8035758e-17 0.0000000e+00 
1.3375365e-17 -1.2328739e-17 0.0000000e+00 
-9.8672804e-18 -2.4404372e-17 0.0000000e+00 
0.0000000e+00 0.0000000e+00 0.0000000e+00 
6.6407400e-18 -1.1099291e-17 0.0000000e+00 
-3.6843366e-17 -1.1521564e-17 0.0000000e+00 
9.0390881e-18 -5.1322723e-18 0.0000000e+00 
-8.0268101e-18 -4.3159637e-19 0.0000000e+00 
0.0000000e+00 0.0000000e+00 0.0000000e+00 
-1.4895263e-17 2.4754160e-19 0.0000000e+00 
-5.6812708e-19 1.2428329e-18 0.0000000e+00 
0.0000000e+00 0.0000000e+00 0.0000000e+00 
1.2424544e-18 3.9355255e-19 0.0000000e+00 
-3.3392961e-18 1.0320251e-18 0.0000000e+00 
-6.2424757e-18 8.2719483e-20 0.0000000e+00 
0.0000000e+00 0.0000000e+00 0.0000000e+00 
0.0000000e+00 0.0000000e+00 0.0000000e+00 
0.0000000e+00 0.0000000e+00 0.0000000e+00 
0.0000000e+00 0.0000000e+00 0.0000000e+00 
0.0000000e+00 0.0000000e+00 0.0000000e+00 
CELL_DATA 38
FIELD FieldData 0
