# vtk DataFile Version 4.0
vtk output
ASCII
DATASET UNSTRUCTURED_GRID
POINTS 101 float
0.0000000e+00 0.0000000e+00 0.0000000e+00 
0.0000000e+00 2.5000000e-01 0.0000000e+00 
2.5000000e-01 0.0000000e+00 0.0000000e+00 
2.5000000e-01 2.5000000e-01 0.0000000e+00 
0.0000000e+00 5.0000000e-01 0.0000000e+00 
5.0000000e-01 0.0000000e+00 0.0000000e+00 
3.5416666e-01 5.0558227e-01 0.0000000e+00 
6.0416669e-01 2.5558227e-01 0.0000000e+00 
0.0000000e+00 7.5000000e-01 0.0000000e+00 
7.5000000e-01 0.0000000e+00 0.0000000e+00 
2.5000000e-01 7.5000000e-01 0.0000000e+00 
7.0833331e-01 5.1116455e-01 0.0000000e+00 
8.5416669e-01 2.5558227e-01 0.0000000e+00 
6.0416669e-01 7.5558227e-01 0.0000000e+00 
0.0000000e+00 1.0000000e+00 0.0000000e+00 
1.0000000e+00 0.0000000e+00 0.0000000e+00 
2.5000000e-01 1.0000000e+00 0.0000000e+00 
9.7916669e-01 5.3907591e-01 0.0000000e+00 
5.0000000e-01 1.0000000e+00 0.0000000e+00 
8.5416669e-01 7.5558227e-01 0.0000000e+00 
1.1250000e+00 2.8349364e-01 0.0000000e+00 
7.5000000e-01 1.0000000e+00 0.0000000e+00 
1.2500000e+00 0.0000000e+00 0.0000000e+00 
1.1250000e+00 7.8349364e-01 0.0000000e+00 
1.2500000e+00 5.6698728e-01 0.0000000e+00 
1.3750000e+00 2.8349364e-01 0.0000000e+00 
1.0000000e+00 1.0000000e+00 0.0000000e+00 
1.5000000e+00 0.0000000e+00 0.0000000e+00 
1.3750000e+00 7.8349364e-01 0.0000000e+00 
1.2500000e+00 1.0000000e+00 0.0000000e+00 
1.5000000e+00 5.6698728e-01 0.0000000e+00 
1.6250000e+00 2.8349364e-01 0.0000000e+00 
1.7500000e+00 0.0000000e+00 0.0000000e+00 
1.5000000e+00 1.0000000e+00 0.0000000e+00 
1.6250000e+00 7.8349364e-01 0.0000000e+00 
1.7500000e+00 5.6698728e-01 0.0000000e+00 
1.8750000e+00 2.8349364e-01 0.0000000e+00 
2.0000000e+00 0.0000000e+00 0.0000000e+00 
1.7500000e+00 1.0000000e+00 0.0000000e+00 
1.8750000e+00 7.8349364e-01 0.0000000e+00 
2.0000000e+00 5.6698728e-01 0.0000000e+00 
2.1250000e+00 2.8349364e-01 0.0000000e+00 
2.0000000e+00 1.0000000e+00 0.0000000e+00 
2.2500000e+00 0.0000000e+00 0.0000000e+00 
2.1250000e+00 7.8349364e-01 0.0000000e+00 
2.2500000e+00 5.6698728e-01 0.0000000e+00 
2.3750000e+00 2.8349364e-01 0.0000000e+00 
2.2500000e+00 1.0000000e+00 0.0000000e+00 
2.5000000e+00 0.0000000e+00 0.0000000e+00 
2.3750000e+00 7.8349364e-01 0.0000000e+00 
2.5000000e+00 5.6698728e-01 0.0000000e+00 
2.6250000e+00 2.8349364e-01 0.0000000e+00 
2.5000000e+00 1.0000000e+00 0.0000000e+00 
2.6250000e+00 7.8349364e-01 0.0000000e+00 
2.7500000e+00 0.0000000e+00 0.0000000e+00 
2.7500000e+00 5.6698728e-01 0.0000000e+00 
2.8750000e+00 2.8349364e-01 0.0000000e+00 
2.7500000e+00 1.0000000e+00 0.0000000e+00 
2.8750000e+00 7.8349364e-01 0.0000000e+00 
3.0000000e+00 0.0000000e+00 0.0000000e+00 
3.0000000e+00 5.0000000e-01 0.0000000e+00 
3.1250000e+00 2.1650635e-01 0.0000000e+00 
3.0000000e+00 1.0000000e+00 0.0000000e+00 
3.1250000e+00 7.1650636e-01 0.0000000e+00 
3.2500000e+00 0.0000000e+00 0.0000000e+00 
3.2500000e+00 4.3301269e-01 0.0000000e+00 
3.3750000e+00 2.1650635e-01 0.0000000e+00 
3.2500000e+00 1.0000000e+00 0.0000000e+00 
3.3750000e+00 7.1650636e-01 0.0000000e+00 
3.5000000e+00 0.0000000e+00 0.0000000e+00 
3.5000000e+00 4.3301269e-01 0.0000000e+00 
3.6250000e+00 2.1650635e-01 0.0000000e+00 
3.5000000e+00 1.0000000e+00 0.0000000e+00 
3.6250000e+00 7.1650636e-01 0.0000000e+00 
3.7500000e+00 0.0000000e+00 0.0000000e+00 
3.7500000e+00 4.3301269e-01 0.0000000e+00 
3.8750000e+00 2.1650635e-01 0.0000000e+00 
3.7500000e+00 1.0000000e+00 0.0000000e+00 
3.8750000e+00 7.1650636e-01 0.0000000e+00 
4.0000000e+00 0.0000000e+00 0.0000000e+00 
4.0208335e+00 4.6092409e-01 0.0000000e+00 
4.0000000e+00 1.0000000e+00 0.0000000e+00 
4.1458335e+00 2.4441773e-01 0.0000000e+00 
4.1458335e+00 7.4441773e-01 0.0000000e+00 
4.2500000e+00 0.0000000e+00 0.0000000e+00 
4.2916665e+00 4.8883545e-01 0.0000000e+00 
4.2500000e+00 1.0000000e+00 0.0000000e+00 
4.3958335e+00 2.4441773e-01 0.0000000e+00 
4.3958335e+00 7.4441773e-01 0.0000000e+00 
4.5000000e+00 0.0000000e+00 0.0000000e+00 
4.5000000e+00 1.0000000e+00 0.0000000e+00 
4.6458335e+00 4.9441773e-01 0.0000000e+00 
4.7500000e+00 0.0000000e+00 0.0000000e+00 
4.7500000e+00 2.5000000e-01 0.0000000e+00 
4.7500000e+00 7.5000000e-01 0.0000000e+00 
4.7500000e+00 1.0000000e+00 0.0000000e+00 
5.0000000e+00 0.0000000e+00 0.0000000e+00 
5.0000000e+00 2.5000000e-01 0.0000000e+00 
5.0000000e+00 5.0000000e-01 0.0000000e+00 
5.0000000e+00 7.5000000e-01 0.0000000e+00 
5.0000000e+00 1.0000000e+00 0.0000000e+00 

CELLS 38 266
6 0 5 4 2 3 1
6 79 89 85 84 87 82
6 62 52 55 57 53 58
6 85 89 98 87 93 91
6 79 85 75 82 80 76
6 55 52 45 53 49 50
6 75 85 81 80 83 78
6 79 75 69 76 71 74
6 45 52 42 49 47 44
6 55 45 48 50 46 51
6 69 75 65 71 70 66
6 65 75 72 70 73 68
6 69 65 59 66 61 64
6 59 65 55 61 60 56
6 37 48 45 43 46 41
6 100 90 98 95 94 99
6 26 18 11 21 13 19
6 11 18 4 13 10 6
6 26 11 24 19 17 23
6 24 11 15 17 12 20
6 26 24 33 23 28 29
6 33 24 35 28 30 34
6 35 24 27 30 25 31
6 33 35 42 34 39 38
6 42 35 45 39 40 44
6 45 35 37 40 36 41
6 15 27 24 22 25 20
6 96 98 89 97 93 92
6 81 72 75 77 73 78
6 14 4 18 8 10 16
6 5 15 11 9 12 7
6 48 59 55 54 56 51
6 90 81 85 86 83 88
6 27 37 35 32 36 31
6 72 62 65 67 63 68
6 62 55 65 58 60 63
6 90 85 98 88 91 94
6 5 11 4 7 6 3

CELL_TYPES 38
22
22
22
22
22
22
22
22
22
22
22
22
22
22
22
22
22
22
22
22
22
22
22
22
22
22
22
22
22
22
22
22
22
22
22
22
22
22
POINT_DATA 101
FIELD FieldData 2
DISPLACEMENT 3 101  float
0.0000000e+00 0.0000000e+00 0.0000000e+00 
0.0000000e+00 0.0000000e+00 0.0000000e+00 
0.0000000e+00 0.0000000e+00 0.0000000e+00 
3.8899032e-19 1.9219775e-19 0.0000000e+00 
0.0000000e+00 0.0000000e+00 0.0000000e+00 
0.0000000e+00 0.0000000e+00 0.0000000e+00 
9.4741131e-19 2.8682726e-19 0.0000000e+00 
9.8772427e-19 4.6344991e-19 0.0000000e+00 
0.0000000e+00 0.0000000e+00 0.0000000e+00 
0.0000000e+00 0.0000000e+00 0.0000000e+00 
7.4018779e-19 7.6829266e-20 0.0000000e+00 
2.0079354e-18 8.2858460e-19 0.0000000e+00 
1.4045228e-18 7.7086843e-19 0.0000000e+00 
1.9534400e-18 4.6945896e-19 0.0000000e+00 
0.0000000e+00 0.0000000e+00 0.0000000e+00 
0.0000000e+00 0.0000000e+00 0.0000000e+00 
6.8013556e-19 -7.3740360e-20 0.0000000e+00 
3.2471906e-18 1.5411447e-18 0.0000000e+00 
1.4303092e-18 8.4719728e-20 0.0000000e+00 
3.0669179e-18 1.0538175e-18 0.0000000e+00 
2.1360159e-18 1.4993215e-18 0.0000000e+00 
2.2256119e-18 5.6030247e-19 0.0000000e+00 
0.0000000e+00 0.0000000e+00 0.0000000e+00 
4.6739795e-18 2.1704866e-18 0.0000000e+00 
5.0348602e-18 2.8741034e-18 0.0000000e+00 
2.9058257e-18 2.2247093e-18 0.0000000e+00 
3.1482961e-18 1.2546123e-18 0.0000000e+00 
0.0000000e+00 0.0000000e+00 0.0000000e+00 
6.6186298e-18 4.0000870e-18 0.0000000e+00 
4.7892095e-18 2.7023232e-18 0.0000000e+00 
7.3150750e-18 4.7956177e-18 0.0000000e+00 
3.6913026e-18 3.1755242e-18 0.0000000e+00 
0.0000000e+00 0.0000000e+00 0.0000000e+00 
7.0037085e-18 5.8387710e-18 0.0000000e+00 
8.9180095e-18 7.5548267e-18 0.0000000e+00 
8.5186873e-18 6.9476835e-18 0.0000000e+00 
3.2072522e-18 1.4695529e-18 0.0000000e+00 
0.0000000e+00 0.0000000e+00 0.0000000e+00 
1.1908516e-17 9.2953420e-18 0.0000000e+00 
1.0926911e-17 8.4657419e-18 0.0000000e+00 
8.4782373e-18 5.9086285e-18 0.0000000e+00 
3.5541705e-18 4.1124115e-18 0.0000000e+00 
1.7049671e-17 9.5410858e-18 0.0000000e+00 
0.0000000e+00 0.0000000e+00 0.0000000e+00 
1.2213572e-17 5.8569979e-18 0.0000000e+00 
1.0587453e-17 4.9932476e-18 0.0000000e+00 
1.2957940e-18 -1.1867073e-19 0.0000000e+00 
1.1700583e-17 1.5936132e-17 0.0000000e+00 
0.0000000e+00 0.0000000e+00 0.0000000e+00 
8.3480871e-18 9.9237263e-18 0.0000000e+00 
5.8389468e-18 4.7893261e-18 0.0000000e+00 
-1.7748641e-18 6.6962271e-19 0.0000000e+00 
1.6784208e-17 1.0503209e-17 0.0000000e+00 
8.1332236e-18 8.0856731e-18 0.0000000e+00 
0.0000000e+00 0.0000000e+00 0.0000000e+00 
2.8321990e-18 -4.0893299e-18 0.0000000e+00 
-1.6878514e-18 -3.9566414e-18 0.0000000e+00 
1.2900213e-17 8.1064031e-18 0.0000000e+00 
3.8883726e-18 -6.4308197e-18 0.0000000e+00 
0.0000000e+00 0.0000000e+00 0.0000000e+00 
8.2193241e-19 -1.0698943e-17 0.0000000e+00 
-1.2791821e-18 -4.1650020e-18 0.0000000e+00 
9.4280623e-18 -1.4544414e-17 0.0000000e+00 
2.6396210e-18 -1.2125122e-17 0.0000000e+00 
0.0000000e+00 0.0000000e+00 0.0000000e+00 
-3.1870623e-19 -9.5304954e-18 0.0000000e+00 
7.3374591e-19 -2.9268086e-18 0.0000000e+00 
1.8379775e-18 -1.1612730e-17 0.0000000e+00 
9.1465827e-19 -1.0324775e-17 0.0000000e+00 
0.0000000e+00 0.0000000e+00 0.0000000e+00 
8.1136797e-19 -5.7010309e-18 0.0000000e+00 
9.2139214e-19 -2.7504103e-18 0.0000000e+00 
-5.8250133e-18 4.1974192e-19 0.0000000e+00 
-9.6269441e-19 -5.9866332e-18 0.0000000e+00 
0.0000000e+00 0.0000000e+00 0.0000000e+00 
2.0398082e-18 -5.5409140e-18 0.0000000e+00 
1.4578453e-18 -2.1779486e-18 0.0000000e+00 
-5.2704880e-18 -6.5206300e-18 0.0000000e+00 
-3.8964593e-19 -4.0973962e-18 0.0000000e+00 
0.0000000e+00 0.0000000e+00 0.0000000e+00 
1.4397028e-18 -2.4109889e-18 0.0000000e+00 
-4.1114624e-18 -4.0737983e-18 0.0000000e+00 
7.7235410e-19 -7.2060795e-19 0.0000000e+00 
-5.8387536e-19 -1.4302269e-18 0.0000000e+00 
0.0000000e+00 0.0000000e+00 0.0000000e+00 
3.9302352e-19 -6.4952062e-19 0.0000000e+00 
-2.2140192e-18 -7.1468545e-19 0.0000000e+00 
5.3138874e-19 -3.1208540e-19 0.0000000e+00 
-4.7235818e-19 -2.6807271e-20 0.0000000e+00 
0.0000000e+00 0.0000000e+00 0.0000000e+00 
-8.8687048e-19 1.1525160e-20 0.0000000e+00 
-2.8402956e-20 7.0776029e-20 0.0000000e+00 
0.0000000e+00 0.0000000e+00 0.0000000e+00 
8.4077856e-20 2.3248010e-20 0.0000000e+00 
-1.9625089e-19 6.1760820e-20 0.0000000e+00 
-3.6710581e-19 2.8022187e-21 0.0000000e+00 
0.0000000e+00 0.0000000e+00 0.0000000e+00 
0.0000000e+00 0.0000000e+00 0.0000000e+00 
0.0000000e+00 0.0000000e+00 0.0000000e+00 
0.0000000e+00 0.0000000e+00 0.0000000e+00 
0.0000000e+00 0.0000000e+00 0.0000000e+00 
TOTAL_DISPLACEMENT 3 101  float
0.0000000e+00 0.0000000e+00 0.0000000e+00 
0.0000000e+00 0.0000000e+00 0.0000000e+00 
0.0000000e+00 0.0000000e+00 0.0000000e+00 
4.5724861e-18 2.2363000e-18 0.0000000e+00 
0.0000000e+00 0.0000000e+00 0.0000000e+00 
0.0000000e+00 0.0000000e+00 0.0000000e+00 
1.0833133e-17 3.5623038e-18 0.0000000e+00 
1.1306279e-17 6.1682168e-18 0.0000000e+00 
0.0000000e+00 0.0000000e+00 0.0000000e+00 
0.0000000e+00 0.0000000e+00 0.0000000e+00 
7.9617788e-18 1.0864925e-18 0.0000000e+00 
2.2717890e-17 9.5360830e-18 0.0000000e+00 
1.5380567e-17 6.7619327e-18 0.0000000e+00 
2.0047546e-17 7.5675950e-18 0.0000000e+00 
0.0000000e+00 0.0000000e+00 0.0000000e+00 
0.0000000e+00 0.0000000e+00 0.0000000e+00 
6.6512944e-18 -8.8773902e-19 0.0000000e+00 
3.6291639e-17 1.5364723e-17 0.0000000e+00 
1.3484012e-17 2.3378273e-18 0.0000000e+00 
3.2160382e-17 9.1107947e-18 0.0000000e+00 
2.3338944e-17 1.5935727e-17 0.0000000e+00 
2.3511550e-17 7.1468306e-18 0.0000000e+00 
0.0000000e+00 0.0000000e+00 0.0000000e+00 
5.0816948e-17 2.4508440e-17 0.0000000e+00 
5.4047574e-17 2.9086383e-17 0.0000000e+00 
3.0458114e-17 2.1869097e-17 0.0000000e+00 
3.3929473e-17 1.3597576e-17 0.0000000e+00 
0.0000000e+00 0.0000000e+00 0.0000000e+00 
7.1948587e-17 4.3912279e-17 0.0000000e+00 
5.0596752e-17 2.9605360e-17 0.0000000e+00 
7.8723341e-17 5.0033952e-17 0.0000000e+00 
4.1340224e-17 3.3126608e-17 0.0000000e+00 
0.0000000e+00 0.0000000e+00 0.0000000e+00 
7.6419749e-17 6.3491221e-17 0.0000000e+00 
9.7809038e-17 7.9762691e-17 0.0000000e+00 
9.0511479e-17 7.5143999e-17 0.0000000e+00 
3.5191218e-17 1.7515745e-17 0.0000000e+00 
0.0000000e+00 0.0000000e+00 0.0000000e+00 
1.3003234e-16 9.9609381e-17 0.0000000e+00 
1.1843233e-16 9.4280346e-17 0.0000000e+00 
9.3208637e-17 5.8709276e-17 0.0000000e+00 
3.7842064e-17 4.6829977e-17 0.0000000e+00 
1.8759468e-16 1.0787822e-16 0.0000000e+00 
0.0000000e+00 0.0000000e+00 0.0000000e+00 
1.3188238e-16 7.4595419e-17 0.0000000e+00 
1.1380350e-16 4.7710812e-17 0.0000000e+00 
1.4441745e-17 2.0658992e-19 0.0000000e+00 
1.2911968e-16 1.9244424e-16 0.0000000e+00 
0.0000000e+00 0.0000000e+00 0.0000000e+00 
9.1614812e-17 9.7093580e-17 0.0000000e+00 
6.2800220e-17 4.9024775e-17 0.0000000e+00 
-1.9122098e-17 1.1620065e-17 0.0000000e+00 
1.8257905e-16 9.6372021e-17 0.0000000e+00 
8.8093134e-17 9.6122887e-17 0.0000000e+00 
0.0000000e+00 0.0000000e+00 0.0000000e+00 
2.9178313e-17 -4.5505852e-17 0.0000000e+00 
-1.7679834e-17 -4.6240525e-17 0.0000000e+00 
1.4051080e-16 9.4408896e-17 0.0000000e+00 
4.2377551e-17 -6.9965067e-17 0.0000000e+00 
0.0000000e+00 0.0000000e+00 0.0000000e+00 
8.6823979e-18 -1.1608339e-16 0.0000000e+00 
-1.3706849e-17 -4.6394678e-17 0.0000000e+00 
9.9579470e-17 -1.5353913e-16 0.0000000e+00 
2.8621088e-17 -1.2813475e-16 0.0000000e+00 
0.0000000e+00 0.0000000e+00 0.0000000e+00 
-2.9207915e-18 -1.0537397e-16 0.0000000e+00 
7.3609314e-18 -2.9272923e-17 0.0000000e+00 
1.9835733e-17 -1.1829822e-16 0.0000000e+00 
9.5814994e-18 -1.1690185e-16 0.0000000e+00 
0.0000000e+00 0.0000000e+00 0.0000000e+00 
8.8344643e-18 -6.4302155e-17 0.0000000e+00 
1.0042243e-17 -2.9475995e-17 0.0000000e+00 
-6.2311946e-17 8.5342281e-19 0.0000000e+00 
-1.0354596e-17 -6.9846138e-17 0.0000000e+00 
0.0000000e+00 0.0000000e+00 0.0000000e+00 
2.3263065e-17 -5.8666819e-17 0.0000000e+00 
1.6081021e-17 -2.3414758e-17 0.0000000e+00 
-5.8830078e-17 -7.0163299e-17 0.0000000e+00 
-4.4418515e-18 -4.6706542e-17 0.0000000e+00 
0.0000000e+00 0.0000000e+00 0.0000000e+00 
1.6049327e-17 -2.6371856e-17 0.0000000e+00 
-4.4118522e-17 -4.3592968e-17 0.0000000e+00 
8.7412402e-18 -8.0050917e-18 0.0000000e+00 
-6.3640282e-18 -1.5823011e-17 0.0000000e+00 
0.0000000e+00 0.0000000e+00 0.0000000e+00 
4.2825990e-18 -7.2021673e-18 0.0000000e+00 
-2.3559250e-17 -7.2334513e-18 0.0000000e+00 
5.8507556e-18 -3.2597600e-18 0.0000000e+00 
-5.1926610e-18 -2.7075276e-19 0.0000000e+00 
0.0000000e+00 0.0000000e+00 0.0000000e+00 
-9.5740407e-18 1.7839065e-19 0.0000000e+00 
-3.9770932e-19 8.1817675e-19 0.0000000e+00 
0.0000000e+00 0.0000000e+00 0.0000000e+00 
7.3798728e-19 2.5406449e-19 0.0000000e+00 
-2.1617908e-18 6.6146015e-19 0.0000000e+00 
-4.0398405e-18 6.5906171e-20 0.0000000e+00 
0.0000000e+00 0.0000000e+00 0.0000000e+00 
0.0000000e+00 0.0000000e+00 0.0000000e+00 
0.0000000e+00 0.0000000e+00 0.0000000e+00 
0.0000000e+00 0.0000000e+00 0.0000000e+00 
0.0000000e+00 0.0000000e+00 0.0000000e+00 
CELL_DATA 38
FIELD FieldData 0
