# vtk DataFile Version 4.0
vtk output
ASCII
DATASET UNSTRUCTURED_GRID
POINTS 101 float
0.0000000e+00 0.0000000e+00 0.0000000e+00 
0.0000000e+00 2.5000000e-01 0.0000000e+00 
2.5000000e-01 0.0000000e+00 0.0000000e+00 
2.5000000e-01 2.5000000e-01 0.0000000e+00 
0.0000000e+00 5.0000000e-01 0.0000000e+00 
5.0000000e-01 0.0000000e+00 0.0000000e+00 
3.5416666e-01 5.0558227e-01 0.0000000e+00 
6.0416669e-01 2.5558227e-01 0.0000000e+00 
0.0000000e+00 7.5000000e-01 0.0000000e+00 
7.5000000e-01 0.0000000e+00 0.0000000e+00 
2.5000000e-01 7.5000000e-01 0.0000000e+00 
7.0833331e-01 5.1116455e-01 0.0000000e+00 
8.5416669e-01 2.5558227e-01 0.0000000e+00 
6.0416669e-01 7.5558227e-01 0.0000000e+00 
0.0000000e+00 1.0000000e+00 0.0000000e+00 
1.0000000e+00 0.0000000e+00 0.0000000e+00 
2.5000000e-01 1.0000000e+00 0.0000000e+00 
9.7916669e-01 5.3907591e-01 0.0000000e+00 
5.0000000e-01 1.0000000e+00 0.0000000e+00 
8.5416669e-01 7.5558227e-01 0.0000000e+00 
1.1250000e+00 2.8349364e-01 0.0000000e+00 
7.5000000e-01 1.0000000e+00 0.0000000e+00 
1.2500000e+00 0.0000000e+00 0.0000000e+00 
1.1250000e+00 7.8349364e-01 0.0000000e+00 
1.2500000e+00 5.6698728e-01 0.0000000e+00 
1.3750000e+00 2.8349364e-01 0.0000000e+00 
1.0000000e+00 1.0000000e+00 0.0000000e+00 
1.5000000e+00 0.0000000e+00 0.0000000e+00 
1.3750000e+00 7.8349364e-01 0.0000000e+00 
1.2500000e+00 1.0000000e+00 0.0000000e+00 
1.5000000e+00 5.6698728e-01 0.0000000e+00 
1.6250000e+00 2.8349364e-01 0.0000000e+00 
1.7500000e+00 0.0000000e+00 0.0000000e+00 
1.5000000e+00 1.0000000e+00 0.0000000e+00 
1.6250000e+00 7.8349364e-01 0.0000000e+00 
1.7500000e+00 5.6698728e-01 0.0000000e+00 
1.8750000e+00 2.8349364e-01 0.0000000e+00 
2.0000000e+00 0.0000000e+00 0.0000000e+00 
1.7500000e+00 1.0000000e+00 0.0000000e+00 
1.8750000e+00 7.8349364e-01 0.0000000e+00 
2.0000000e+00 5.6698728e-01 0.0000000e+00 
2.1250000e+00 2.8349364e-01 0.0000000e+00 
2.0000000e+00 1.0000000e+00 0.0000000e+00 
2.2500000e+00 0.0000000e+00 0.0000000e+00 
2.1250000e+00 7.8349364e-01 0.0000000e+00 
2.2500000e+00 5.6698728e-01 0.0000000e+00 
2.3750000e+00 2.8349364e-01 0.0000000e+00 
2.2500000e+00 1.0000000e+00 0.0000000e+00 
2.5000000e+00 0.0000000e+00 0.0000000e+00 
2.3750000e+00 7.8349364e-01 0.0000000e+00 
2.5000000e+00 5.6698728e-01 0.0000000e+00 
2.6250000e+00 2.8349364e-01 0.0000000e+00 
2.5000000e+00 1.0000000e+00 0.0000000e+00 
2.6250000e+00 7.8349364e-01 0.0000000e+00 
2.7500000e+00 0.0000000e+00 0.0000000e+00 
2.7500000e+00 5.6698728e-01 0.0000000e+00 
2.8750000e+00 2.8349364e-01 0.0000000e+00 
2.7500000e+00 1.0000000e+00 0.0000000e+00 
2.8750000e+00 7.8349364e-01 0.0000000e+00 
3.0000000e+00 0.0000000e+00 0.0000000e+00 
3.0000000e+00 5.0000000e-01 0.0000000e+00 
3.1250000e+00 2.1650635e-01 0.0000000e+00 
3.0000000e+00 1.0000000e+00 0.0000000e+00 
3.1250000e+00 7.1650636e-01 0.0000000e+00 
3.2500000e+00 0.0000000e+00 0.0000000e+00 
3.2500000e+00 4.3301269e-01 0.0000000e+00 
3.3750000e+00 2.1650635e-01 0.0000000e+00 
3.2500000e+00 1.0000000e+00 0.0000000e+00 
3.3750000e+00 7.1650636e-01 0.0000000e+00 
3.5000000e+00 0.0000000e+00 0.0000000e+00 
3.5000000e+00 4.3301269e-01 0.0000000e+00 
3.6250000e+00 2.1650635e-01 0.0000000e+00 
3.5000000e+00 1.0000000e+00 0.0000000e+00 
3.6250000e+00 7.1650636e-01 0.0000000e+00 
3.7500000e+00 0.0000000e+00 0.0000000e+00 
3.7500000e+00 4.3301269e-01 0.0000000e+00 
3.8750000e+00 2.1650635e-01 0.0000000e+00 
3.7500000e+00 1.0000000e+00 0.0000000e+00 
3.8750000e+00 7.1650636e-01 0.0000000e+00 
4.0000000e+00 0.0000000e+00 0.0000000e+00 
4.0208335e+00 4.6092409e-01 0.0000000e+00 
4.0000000e+00 1.0000000e+00 0.0000000e+00 
4.1458335e+00 2.4441773e-01 0.0000000e+00 
4.1458335e+00 7.4441773e-01 0.0000000e+00 
4.2500000e+00 0.0000000e+00 0.0000000e+00 
4.2916665e+00 4.8883545e-01 0.0000000e+00 
4.2500000e+00 1.0000000e+00 0.0000000e+00 
4.3958335e+00 2.4441773e-01 0.0000000e+00 
4.3958335e+00 7.4441773e-01 0.0000000e+00 
4.5000000e+00 0.0000000e+00 0.0000000e+00 
4.5000000e+00 1.0000000e+00 0.0000000e+00 
4.6458335e+00 4.9441773e-01 0.0000000e+00 
4.7500000e+00 0.0000000e+00 0.0000000e+00 
4.7500000e+00 2.5000000e-01 0.0000000e+00 
4.7500000e+00 7.5000000e-01 0.0000000e+00 
4.7500000e+00 1.0000000e+00 0.0000000e+00 
5.0000000e+00 0.0000000e+00 0.0000000e+00 
5.0000000e+00 2.5000000e-01 0.0000000e+00 
5.0000000e+00 5.0000000e-01 0.0000000e+00 
5.0000000e+00 7.5000000e-01 0.0000000e+00 
5.0000000e+00 1.0000000e+00 0.0000000e+00 

CELLS 38 266
6 0 5 4 2 3 1
6 79 89 85 84 87 82
6 62 52 55 57 53 58
6 85 89 98 87 93 91
6 79 85 75 82 80 76
6 55 52 45 53 49 50
6 75 85 81 80 83 78
6 79 75 69 76 71 74
6 45 52 42 49 47 44
6 55 45 48 50 46 51
6 69 75 65 71 70 66
6 65 75 72 70 73 68
6 69 65 59 66 61 64
6 59 65 55 61 60 56
6 37 48 45 43 46 41
6 100 90 98 95 94 99
6 26 18 11 21 13 19
6 11 18 4 13 10 6
6 26 11 24 19 17 23
6 24 11 15 17 12 20
6 26 24 33 23 28 29
6 33 24 35 28 30 34
6 35 24 27 30 25 31
6 33 35 42 34 39 38
6 42 35 45 39 40 44
6 45 35 37 40 36 41
6 15 27 24 22 25 20
6 96 98 89 97 93 92
6 81 72 75 77 73 78
6 14 4 18 8 10 16
6 5 15 11 9 12 7
6 48 59 55 54 56 51
6 90 81 85 86 83 88
6 27 37 35 32 36 31
6 72 62 65 67 63 68
6 62 55 65 58 60 63
6 90 85 98 88 91 94
6 5 11 4 7 6 3

CELL_TYPES 38
22
22
22
22
22
22
22
22
22
22
22
22
22
22
22
22
22
22
22
22
22
22
22
22
22
22
22
22
22
22
22
22
22
22
22
22
22
22
POINT_DATA 101
FIELD FieldData 2
DISPLACEMENT 3 101  float
0.0000000e+00 0.0000000e+00 0.0000000e+00 
0.0000000e+00 0.0000000e+00 0.0000000e+00 
0.0000000e+00 0.0000000e+00 0.0000000e+00 
7.7798063e-19 3.8439551e-19 0.0000000e+00 
0.0000000e+00 0.0000000e+00 0.0000000e+00 
0.0000000e+00 0.0000000e+00 0.0000000e+00 
1.8948226e-18 5.7365451e-19 0.0000000e+00 
1.9754485e-18 9.2689982e-19 0.0000000e+00 
0.0000000e+00 0.0000000e+00 0.0000000e+00 
0.0000000e+00 0.0000000e+00 0.0000000e+00 
1.4803756e-18 1.5365853e-19 0.0000000e+00 
4.0158709e-18 1.6571692e-18 0.0000000e+00 
2.8090456e-18 1.5417369e-18 0.0000000e+00 
3.9068799e-18 9.3891793e-19 0.0000000e+00 
0.0000000e+00 0.0000000e+00 0.0000000e+00 
0.0000000e+00 0.0000000e+00 0.0000000e+00 
1.3602711e-18 -1.4748072e-19 0.0000000e+00 
6.4943811e-18 3.0822894e-18 0.0000000e+00 
2.8606184e-18 1.6943946e-19 0.0000000e+00 
6.1338358e-18 2.1076349e-18 0.0000000e+00 
4.2720318e-18 2.9986430e-18 0.0000000e+00 
4.4512239e-18 1.1206049e-18 0.0000000e+00 
0.0000000e+00 0.0000000e+00 0.0000000e+00 
9.3479590e-18 4.3409731e-18 0.0000000e+00 
1.0069720e-17 5.7482067e-18 0.0000000e+00 
5.8116515e-18 4.4494186e-18 0.0000000e+00 
6.2965923e-18 2.5092247e-18 0.0000000e+00 
0.0000000e+00 0.0000000e+00 0.0000000e+00 
1.3237260e-17 8.0001741e-18 0.0000000e+00 
9.5784190e-18 5.4046463e-18 0.0000000e+00 
1.4630150e-17 9.5912353e-18 0.0000000e+00 
7.3826052e-18 6.3510485e-18 0.0000000e+00 
0.0000000e+00 0.0000000e+00 0.0000000e+00 
1.4007417e-17 1.1677542e-17 0.0000000e+00 
1.7836019e-17 1.5109653e-17 0.0000000e+00 
1.7037375e-17 1.3895367e-17 0.0000000e+00 
6.4145044e-18 2.9391059e-18 0.0000000e+00 
0.0000000e+00 0.0000000e+00 0.0000000e+00 
2.3817031e-17 1.8590684e-17 0.0000000e+00 
2.1853822e-17 1.6931484e-17 0.0000000e+00 
1.6956475e-17 1.1817257e-17 0.0000000e+00 
7.1083410e-18 8.2248231e-18 0.0000000e+00 
3.4099343e-17 1.9082172e-17 0.0000000e+00 
0.0000000e+00 0.0000000e+00 0.0000000e+00 
2.4427145e-17 1.1713996e-17 0.0000000e+00 
2.1174906e-17 9.9864953e-18 0.0000000e+00 
2.5915881e-18 -2.3734146e-19 0.0000000e+00 
2.3401166e-17 3.1872265e-17 0.0000000e+00 
0.0000000e+00 0.0000000e+00 0.0000000e+00 
1.6696174e-17 1.9847453e-17 0.0000000e+00 
1.1677894e-17 9.5786522e-18 0.0000000e+00 
-3.5497281e-18 1.3392454e-18 0.0000000e+00 
3.3568415e-17 2.1006417e-17 0.0000000e+00 
1.6266447e-17 1.6171346e-17 0.0000000e+00 
0.0000000e+00 0.0000000e+00 0.0000000e+00 
5.6643980e-18 -8.1786598e-18 0.0000000e+00 
-3.3757028e-18 -7.9132829e-18 0.0000000e+00 
2.5800425e-17 1.6212806e-17 0.0000000e+00 
7.7767451e-18 -1.2861639e-17 0.0000000e+00 
0.0000000e+00 0.0000000e+00 0.0000000e+00 
1.6438648e-18 -2.1397887e-17 0.0000000e+00 
-2.5583642e-18 -8.3300041e-18 0.0000000e+00 
1.8856125e-17 -2.9088829e-17 0.0000000e+00 
5.2792420e-18 -2.4250244e-17 0.0000000e+00 
0.0000000e+00 0.0000000e+00 0.0000000e+00 
-6.3741246e-19 -1.9060991e-17 0.0000000e+00 
1.4674918e-18 -5.8536172e-18 0.0000000e+00 
3.6759551e-18 -2.3225460e-17 0.0000000e+00 
1.8293165e-18 -2.0649550e-17 0.0000000e+00 
0.0000000e+00 0.0000000e+00 0.0000000e+00 
1.6227359e-18 -1.1402062e-17 0.0000000e+00 
1.8427843e-18 -5.5008206e-18 0.0000000e+00 
-1.1650027e-17 8.3948384e-19 0.0000000e+00 
-1.9253888e-18 -1.1973266e-17 0.0000000e+00 
0.0000000e+00 0.0000000e+00 0.0000000e+00 
4.0796163e-18 -1.1081828e-17 0.0000000e+00 
2.9156907e-18 -4.3558971e-18 0.0000000e+00 
-1.0540976e-17 -1.3041260e-17 0.0000000e+00 
-7.7929187e-19 -8.1947923e-18 0.0000000e+00 
0.0000000e+00 0.0000000e+00 0.0000000e+00 
2.8794056e-18 -4.8219778e-18 0.0000000e+00 
-8.2229247e-18 -8.1475967e-18 0.0000000e+00 
1.5447082e-18 -1.4412159e-18 0.0000000e+00 
-1.1677507e-18 -2.8604538e-18 0.0000000e+00 
0.0000000e+00 0.0000000e+00 0.0000000e+00 
7.8604704e-19 -1.2990412e-18 0.0000000e+00 
-4.4280384e-18 -1.4293709e-18 0.0000000e+00 
1.0627775e-18 -6.2417079e-19 0.0000000e+00 
-9.4471636e-19 -5.3614542e-20 0.0000000e+00 
0.0000000e+00 0.0000000e+00 0.0000000e+00 
-1.7737410e-18 2.3050320e-20 0.0000000e+00 
-5.6805911e-20 1.4155206e-19 0.0000000e+00 
0.0000000e+00 0.0000000e+00 0.0000000e+00 
1.6815571e-19 4.6496019e-20 0.0000000e+00 
-3.9250178e-19 1.2352164e-19 0.0000000e+00 
-7.3421161e-19 5.6044374e-21 0.0000000e+00 
0.0000000e+00 0.0000000e+00 0.0000000e+00 
0.0000000e+00 0.0000000e+00 0.0000000e+00 
0.0000000e+00 0.0000000e+00 0.0000000e+00 
0.0000000e+00 0.0000000e+00 0.0000000e+00 
0.0000000e+00 0.0000000e+00 0.0000000e+00 
TOTAL_DISPLACEMENT 3 101  float
0.0000000e+00 0.0000000e+00 0.0000000e+00 
0.0000000e+00 0.0000000e+00 0.0000000e+00 
0.0000000e+00 0.0000000e+00 0.0000000e+00 
4.9614765e-18 2.4284978e-18 0.0000000e+00 
0.0000000e+00 0.0000000e+00 0.0000000e+00 
0.0000000e+00 0.0000000e+00 0.0000000e+00 
1.1780544e-17 3.8491307e-18 0.0000000e+00 
1.2294004e-17 6.6316666e-18 0.0000000e+00 
0.0000000e+00 0.0000000e+00 0.0000000e+00 
0.0000000e+00 0.0000000e+00 0.0000000e+00 
8.7019665e-18 1.1633218e-18 0.0000000e+00 
2.4725826e-17 1.0364668e-17 0.0000000e+00 
1.6785089e-17 7.5328013e-18 0.0000000e+00 
2.2000986e-17 8.0370539e-18 0.0000000e+00 
0.0000000e+00 0.0000000e+00 0.0000000e+00 
0.0000000e+00 0.0000000e+00 0.0000000e+00 
7.3314300e-18 -9.6147938e-19 0.0000000e+00 
3.9538830e-17 1.6905868e-17 0.0000000e+00 
1.4914321e-17 2.4225471e-18 0.0000000e+00 
3.5227300e-17 1.0164612e-17 0.0000000e+00 
2.5474961e-17 1.7435048e-17 0.0000000e+00 
2.5737162e-17 7.7071329e-18 0.0000000e+00 
0.0000000e+00 0.0000000e+00 0.0000000e+00 
5.5490925e-17 2.6678926e-17 0.0000000e+00 
5.9082434e-17 3.1960489e-17 0.0000000e+00 
3.3363940e-17 2.4093808e-17 0.0000000e+00 
3.7077769e-17 1.4852188e-17 0.0000000e+00 
0.0000000e+00 0.0000000e+00 0.0000000e+00 
7.8567216e-17 4.7912366e-17 0.0000000e+00 
5.5385959e-17 3.2307683e-17 0.0000000e+00 
8.6038417e-17 5.4829571e-17 0.0000000e+00 
4.5031527e-17 3.6302135e-17 0.0000000e+00 
0.0000000e+00 0.0000000e+00 0.0000000e+00 
8.3423461e-17 6.9329991e-17 0.0000000e+00 
1.0672704e-16 8.7317516e-17 0.0000000e+00 
9.9030162e-17 8.2091680e-17 0.0000000e+00 
3.8398468e-17 1.8985299e-17 0.0000000e+00 
0.0000000e+00 0.0000000e+00 0.0000000e+00 
1.4194086e-16 1.0890473e-16 0.0000000e+00 
1.2935924e-16 1.0274608e-16 0.0000000e+00 
1.0168687e-16 6.4617900e-17 0.0000000e+00 
4.1396234e-17 5.0942388e-17 0.0000000e+00 
2.0464435e-16 1.1741931e-16 0.0000000e+00 
0.0000000e+00 0.0000000e+00 0.0000000e+00 
1.4409596e-16 8.0452414e-17 0.0000000e+00 
1.2439096e-16 5.2704061e-17 0.0000000e+00 
1.5737540e-17 8.7919192e-20 0.0000000e+00 
1.4082026e-16 2.0838038e-16 0.0000000e+00 
0.0000000e+00 0.0000000e+00 0.0000000e+00 
9.9962904e-17 1.0701731e-16 0.0000000e+00 
6.8639163e-17 5.3814101e-17 0.0000000e+00 
-2.0896963e-17 1.2289687e-17 0.0000000e+00 
1.9936326e-16 1.0687523e-16 0.0000000e+00 
9.6226357e-17 1.0420856e-16 0.0000000e+00 
0.0000000e+00 0.0000000e+00 0.0000000e+00 
3.2010510e-17 -4.9595182e-17 0.0000000e+00 
-1.9367685e-17 -5.0197168e-17 0.0000000e+00 
1.5341102e-16 1.0251530e-16 0.0000000e+00 
4.6265922e-17 -7.6395887e-17 0.0000000e+00 
0.0000000e+00 0.0000000e+00 0.0000000e+00 
9.5043309e-18 -1.2678234e-16 0.0000000e+00 
-1.4986031e-17 -5.0559678e-17 0.0000000e+00 
1.0900754e-16 -1.6808355e-16 0.0000000e+00 
3.1260707e-17 -1.4025988e-16 0.0000000e+00 
0.0000000e+00 0.0000000e+00 0.0000000e+00 
-3.2394976e-18 -1.1490447e-16 0.0000000e+00 
8.0946778e-18 -3.2199729e-17 0.0000000e+00 
2.1673710e-17 -1.2991095e-16 0.0000000e+00 
1.0496158e-17 -1.2722663e-16 0.0000000e+00 
0.0000000e+00 0.0000000e+00 0.0000000e+00 
9.6458317e-18 -7.0003190e-17 0.0000000e+00 
1.0963635e-17 -3.2226404e-17 0.0000000e+00 
-6.8136958e-17 1.2731648e-18 0.0000000e+00 
-1.1317290e-17 -7.5832775e-17 0.0000000e+00 
0.0000000e+00 0.0000000e+00 0.0000000e+00 
2.5302874e-17 -6.4207738e-17 0.0000000e+00 
1.7538868e-17 -2.5592707e-17 0.0000000e+00 
-6.4100562e-17 -7.6683924e-17 0.0000000e+00 
-4.8314974e-18 -5.0803938e-17 0.0000000e+00 
0.0000000e+00 0.0000000e+00 0.0000000e+00 
1.7489030e-17 -2.8782845e-17 0.0000000e+00 
-4.8229983e-17 -4.7666766e-17 0.0000000e+00 
9.5135945e-18 -8.7256992e-18 0.0000000e+00 
-6.9479036e-18 -1.7253237e-17 0.0000000e+00 
0.0000000e+00 0.0000000e+00 0.0000000e+00 
4.6756223e-18 -7.8516885e-18 0.0000000e+00 
-2.5773269e-17 -7.9481361e-18 0.0000000e+00 
6.3821443e-18 -3.5718453e-18 0.0000000e+00 
-5.6650192e-18 -2.9756003e-19 0.0000000e+00 
0.0000000e+00 0.0000000e+00 0.0000000e+00 
-1.0460911e-17 1.8991581e-19 0.0000000e+00 
-4.2611227e-19 8.8895281e-19 0.0000000e+00 
0.0000000e+00 0.0000000e+00 0.0000000e+00 
8.2206512e-19 2.7731251e-19 0.0000000e+00 
-2.3580417e-18 7.2322097e-19 0.0000000e+00 
-4.4069466e-18 6.8708394e-20 0.0000000e+00 
0.0000000e+00 0.0000000e+00 0.0000000e+00 
0.0000000e+00 0.0000000e+00 0.0000000e+00 
0.0000000e+00 0.0000000e+00 0.0000000e+00 
0.0000000e+00 0.0000000e+00 0.0000000e+00 
0.0000000e+00 0.0000000e+00 0.0000000e+00 
CELL_DATA 38
FIELD FieldData 0
