# vtk DataFile Version 4.0
vtk output
ASCII
DATASET UNSTRUCTURED_GRID
POINTS 101 float
0.0000000e+00 0.0000000e+00 0.0000000e+00 
0.0000000e+00 2.5000000e-01 0.0000000e+00 
2.5000000e-01 0.0000000e+00 0.0000000e+00 
2.5000000e-01 2.5000000e-01 0.0000000e+00 
0.0000000e+00 5.0000000e-01 0.0000000e+00 
5.0000000e-01 0.0000000e+00 0.0000000e+00 
3.5416666e-01 5.0558227e-01 0.0000000e+00 
6.0416669e-01 2.5558227e-01 0.0000000e+00 
0.0000000e+00 7.5000000e-01 0.0000000e+00 
7.5000000e-01 0.0000000e+00 0.0000000e+00 
2.5000000e-01 7.5000000e-01 0.0000000e+00 
7.0833331e-01 5.1116455e-01 0.0000000e+00 
8.5416669e-01 2.5558227e-01 0.0000000e+00 
6.0416669e-01 7.5558227e-01 0.0000000e+00 
0.0000000e+00 1.0000000e+00 0.0000000e+00 
1.0000000e+00 0.0000000e+00 0.0000000e+00 
2.5000000e-01 1.0000000e+00 0.0000000e+00 
9.7916669e-01 5.3907591e-01 0.0000000e+00 
5.0000000e-01 1.0000000e+00 0.0000000e+00 
8.5416669e-01 7.5558227e-01 0.0000000e+00 
1.1250000e+00 2.8349364e-01 0.0000000e+00 
7.5000000e-01 1.0000000e+00 0.0000000e+00 
1.2500000e+00 0.0000000e+00 0.0000000e+00 
1.1250000e+00 7.8349364e-01 0.0000000e+00 
1.2500000e+00 5.6698728e-01 0.0000000e+00 
1.3750000e+00 2.8349364e-01 0.0000000e+00 
1.0000000e+00 1.0000000e+00 0.0000000e+00 
1.5000000e+00 0.0000000e+00 0.0000000e+00 
1.3750000e+00 7.8349364e-01 0.0000000e+00 
1.2500000e+00 1.0000000e+00 0.0000000e+00 
1.5000000e+00 5.6698728e-01 0.0000000e+00 
1.6250000e+00 2.8349364e-01 0.0000000e+00 
1.7500000e+00 0.0000000e+00 0.0000000e+00 
1.5000000e+00 1.0000000e+00 0.0000000e+00 
1.6250000e+00 7.8349364e-01 0.0000000e+00 
1.7500000e+00 5.6698728e-01 0.0000000e+00 
1.8750000e+00 2.8349364e-01 0.0000000e+00 
2.0000000e+00 0.0000000e+00 0.0000000e+00 
1.7500000e+00 1.0000000e+00 0.0000000e+00 
1.8750000e+00 7.8349364e-01 0.0000000e+00 
2.0000000e+00 5.6698728e-01 0.0000000e+00 
2.1250000e+00 2.8349364e-01 0.0000000e+00 
2.0000000e+00 1.0000000e+00 0.0000000e+00 
2.2500000e+00 0.0000000e+00 0.0000000e+00 
2.1250000e+00 7.8349364e-01 0.0000000e+00 
2.2500000e+00 5.6698728e-01 0.0000000e+00 
2.3750000e+00 2.8349364e-01 0.0000000e+00 
2.2500000e+00 1.0000000e+00 0.0000000e+00 
2.5000000e+00 0.0000000e+00 0.0000000e+00 
2.3750000e+00 7.8349364e-01 0.0000000e+00 
2.5000000e+00 5.6698728e-01 0.0000000e+00 
2.6250000e+00 2.8349364e-01 0.0000000e+00 
2.5000000e+00 1.0000000e+00 0.0000000e+00 
2.6250000e+00 7.8349364e-01 0.0000000e+00 
2.7500000e+00 0.0000000e+00 0.0000000e+00 
2.7500000e+00 5.6698728e-01 0.0000000e+00 
2.8750000e+00 2.8349364e-01 0.0000000e+00 
2.7500000e+00 1.0000000e+00 0.0000000e+00 
2.8750000e+00 7.8349364e-01 0.0000000e+00 
3.0000000e+00 0.0000000e+00 0.0000000e+00 
3.0000000e+00 5.0000000e-01 0.0000000e+00 
3.1250000e+00 2.1650635e-01 0.0000000e+00 
3.0000000e+00 1.0000000e+00 0.0000000e+00 
3.1250000e+00 7.1650636e-01 0.0000000e+00 
3.2500000e+00 0.0000000e+00 0.0000000e+00 
3.2500000e+00 4.3301269e-01 0.0000000e+00 
3.3750000e+00 2.1650635e-01 0.0000000e+00 
3.2500000e+00 1.0000000e+00 0.0000000e+00 
3.3750000e+00 7.1650636e-01 0.0000000e+00 
3.5000000e+00 0.0000000e+00 0.0000000e+00 
3.5000000e+00 4.3301269e-01 0.0000000e+00 
3.6250000e+00 2.1650635e-01 0.0000000e+00 
3.5000000e+00 1.0000000e+00 0.0000000e+00 
3.6250000e+00 7.1650636e-01 0.0000000e+00 
3.7500000e+00 0.0000000e+00 0.0000000e+00 
3.7500000e+00 4.3301269e-01 0.0000000e+00 
3.8750000e+00 2.1650635e-01 0.0000000e+00 
3.7500000e+00 1.0000000e+00 0.0000000e+00 
3.8750000e+00 7.1650636e-01 0.0000000e+00 
4.0000000e+00 0.0000000e+00 0.0000000e+00 
4.0208335e+00 4.6092409e-01 0.0000000e+00 
4.0000000e+00 1.0000000e+00 0.0000000e+00 
4.1458335e+00 2.4441773e-01 0.0000000e+00 
4.1458335e+00 7.4441773e-01 0.0000000e+00 
4.2500000e+00 0.0000000e+00 0.0000000e+00 
4.2916665e+00 4.8883545e-01 0.0000000e+00 
4.2500000e+00 1.0000000e+00 0.0000000e+00 
4.3958335e+00 2.4441773e-01 0.0000000e+00 
4.3958335e+00 7.4441773e-01 0.0000000e+00 
4.5000000e+00 0.0000000e+00 0.0000000e+00 
4.5000000e+00 1.0000000e+00 0.0000000e+00 
4.6458335e+00 4.9441773e-01 0.0000000e+00 
4.7500000e+00 0.0000000e+00 0.0000000e+00 
4.7500000e+00 2.5000000e-01 0.0000000e+00 
4.7500000e+00 7.5000000e-01 0.0000000e+00 
4.7500000e+00 1.0000000e+00 0.0000000e+00 
5.0000000e+00 0.0000000e+00 0.0000000e+00 
5.0000000e+00 2.5000000e-01 0.0000000e+00 
5.0000000e+00 5.0000000e-01 0.0000000e+00 
5.0000000e+00 7.5000000e-01 0.0000000e+00 
5.0000000e+00 1.0000000e+00 0.0000000e+00 

CELLS 38 266
6 0 5 4 2 3 1
6 79 89 85 84 87 82
6 62 52 55 57 53 58
6 85 89 98 87 93 91
6 79 85 75 82 80 76
6 55 52 45 53 49 50
6 75 85 81 80 83 78
6 79 75 69 76 71 74
6 45 52 42 49 47 44
6 55 45 48 50 46 51
6 69 75 65 71 70 66
6 65 75 72 70 73 68
6 69 65 59 66 61 64
6 59 65 55 61 60 56
6 37 48 45 43 46 41
6 100 90 98 95 94 99
6 26 18 11 21 13 19
6 11 18 4 13 10 6
6 26 11 24 19 17 23
6 24 11 15 17 12 20
6 26 24 33 23 28 29
6 33 24 35 28 30 34
6 35 24 27 30 25 31
6 33 35 42 34 39 38
6 42 35 45 39 40 44
6 45 35 37 40 36 41
6 15 27 24 22 25 20
6 96 98 89 97 93 92
6 81 72 75 77 73 78
6 14 4 18 8 10 16
6 5 15 11 9 12 7
6 48 59 55 54 56 51
6 90 81 85 86 83 88
6 27 37 35 32 36 31
6 72 62 65 67 63 68
6 62 55 65 58 60 63
6 90 85 98 88 91 94
6 5 11 4 7 6 3

CELL_TYPES 38
22
22
22
22
22
22
22
22
22
22
22
22
22
22
22
22
22
22
22
22
22
22
22
22
22
22
22
22
22
22
22
22
22
22
22
22
22
22
POINT_DATA 101
FIELD FieldData 2
DISPLACEMENT 3 101  float
0.0000000e+00 0.0000000e+00 0.0000000e+00 
0.0000000e+00 0.0000000e+00 0.0000000e+00 
0.0000000e+00 0.0000000e+00 0.0000000e+00 
3.8899033e-18 1.9219775e-18 0.0000000e+00 
0.0000000e+00 0.0000000e+00 0.0000000e+00 
0.0000000e+00 0.0000000e+00 0.0000000e+00 
9.4741131e-18 2.8682726e-18 0.0000000e+00 
9.8772429e-18 4.6344990e-18 0.0000000e+00 
0.0000000e+00 0.0000000e+00 0.0000000e+00 
0.0000000e+00 0.0000000e+00 0.0000000e+00 
7.4018776e-18 7.6829264e-19 0.0000000e+00 
2.0079354e-17 8.2858459e-18 0.0000000e+00 
1.4045227e-17 7.7086847e-18 0.0000000e+00 
1.9534400e-17 4.6945895e-18 0.0000000e+00 
0.0000000e+00 0.0000000e+00 0.0000000e+00 
0.0000000e+00 0.0000000e+00 0.0000000e+00 
6.8013557e-18 -7.3740360e-19 0.0000000e+00 
3.2471905e-17 1.5411447e-17 0.0000000e+00 
1.4303093e-17 8.4719725e-19 0.0000000e+00 
3.0669177e-17 1.0538174e-17 0.0000000e+00 
2.1360158e-17 1.4993214e-17 0.0000000e+00 
2.2256120e-17 5.6030245e-18 0.0000000e+00 
0.0000000e+00 0.0000000e+00 0.0000000e+00 
4.6739794e-17 2.1704867e-17 0.0000000e+00 
5.0348601e-17 2.8741032e-17 0.0000000e+00 
2.9058256e-17 2.2247094e-17 0.0000000e+00 
3.1482961e-17 1.2546124e-17 0.0000000e+00 
0.0000000e+00 0.0000000e+00 0.0000000e+00 
6.6186294e-17 4.0000873e-17 0.0000000e+00 
4.7892093e-17 2.7023231e-17 0.0000000e+00 
7.3150751e-17 4.7956177e-17 0.0000000e+00 
3.6913027e-17 3.1755242e-17 0.0000000e+00 
0.0000000e+00 0.0000000e+00 0.0000000e+00 
7.0037085e-17 5.8387708e-17 0.0000000e+00 
8.9180095e-17 7.5548265e-17 0.0000000e+00 
8.5186878e-17 6.9476832e-17 0.0000000e+00 
3.2072522e-17 1.4695530e-17 0.0000000e+00 
0.0000000e+00 0.0000000e+00 0.0000000e+00 
1.1908516e-16 9.2953422e-17 0.0000000e+00 
1.0926911e-16 8.4657416e-17 0.0000000e+00 
8.4782373e-17 5.9086285e-17 0.0000000e+00 
3.5541704e-17 4.1124115e-17 0.0000000e+00 
1.7049672e-16 9.5410863e-17 0.0000000e+00 
0.0000000e+00 0.0000000e+00 0.0000000e+00 
1.2213573e-16 5.8569979e-17 0.0000000e+00 
1.0587453e-16 4.9932476e-17 0.0000000e+00 
1.2957941e-17 -1.1867073e-18 0.0000000e+00 
1.1700584e-16 1.5936133e-16 0.0000000e+00 
0.0000000e+00 0.0000000e+00 0.0000000e+00 
8.3480874e-17 9.9237268e-17 0.0000000e+00 
5.8389468e-17 4.7893261e-17 0.0000000e+00 
-1.7748641e-17 6.6962272e-18 0.0000000e+00 
1.6784208e-16 1.0503209e-16 0.0000000e+00 
8.1332236e-17 8.0856733e-17 0.0000000e+00 
0.0000000e+00 0.0000000e+00 0.0000000e+00 
2.8321989e-17 -4.0893298e-17 0.0000000e+00 
-1.6878515e-17 -3.9566411e-17 0.0000000e+00 
1.2900213e-16 8.1064031e-17 0.0000000e+00 
3.8883729e-17 -6.4308197e-17 0.0000000e+00 
0.0000000e+00 0.0000000e+00 0.0000000e+00 
8.2193240e-18 -1.0698944e-16 0.0000000e+00 
-1.2791821e-17 -4.1650020e-17 0.0000000e+00 
9.4280617e-17 -1.4544415e-16 0.0000000e+00 
2.6396210e-17 -1.2125122e-16 0.0000000e+00 
0.0000000e+00 0.0000000e+00 0.0000000e+00 
-3.1870622e-18 -9.5304951e-17 0.0000000e+00 
7.3374593e-18 -2.9268085e-17 0.0000000e+00 
1.8379775e-17 -1.1612730e-16 0.0000000e+00 
9.1465827e-18 -1.0324775e-16 0.0000000e+00 
0.0000000e+00 0.0000000e+00 0.0000000e+00 
8.1136798e-18 -5.7010314e-17 0.0000000e+00 
9.2139210e-18 -2.7504103e-17 0.0000000e+00 
-5.8250132e-17 4.1974192e-18 0.0000000e+00 
-9.6269439e-18 -5.9866330e-17 0.0000000e+00 
0.0000000e+00 0.0000000e+00 0.0000000e+00 
2.0398082e-17 -5.5409140e-17 0.0000000e+00 
1.4578453e-17 -2.1779487e-17 0.0000000e+00 
-5.2704881e-17 -6.5206297e-17 0.0000000e+00 
-3.8964595e-18 -4.0973962e-17 0.0000000e+00 
0.0000000e+00 0.0000000e+00 0.0000000e+00 
1.4397027e-17 -2.4109890e-17 0.0000000e+00 
-4.1114622e-17 -4.0737983e-17 0.0000000e+00 
7.7235409e-18 -7.2060799e-18 0.0000000e+00 
-5.8387536e-18 -1.4302269e-17 0.0000000e+00 
0.0000000e+00 0.0000000e+00 0.0000000e+00 
3.9302349e-18 -6.4952062e-18 0.0000000e+00 
-2.2140194e-17 -7.1468546e-18 0.0000000e+00 
5.3138873e-18 -3.1208540e-18 0.0000000e+00 
-4.7235818e-18 -2.6807272e-19 0.0000000e+00 
0.0000000e+00 0.0000000e+00 0.0000000e+00 
-8.8687054e-18 1.1525160e-19 0.0000000e+00 
-2.8402955e-19 7.0776029e-19 0.0000000e+00 
0.0000000e+00 0.0000000e+00 0.0000000e+00 
8.4077853e-19 2.3248009e-19 0.0000000e+00 
-1.9625090e-18 6.1760820e-19 0.0000000e+00 
-3.6710582e-18 2.8022188e-20 0.0000000e+00 
0.0000000e+00 0.0000000e+00 0.0000000e+00 
0.0000000e+00 0.0000000e+00 0.0000000e+00 
0.0000000e+00 0.0000000e+00 0.0000000e+00 
0.0000000e+00 0.0000000e+00 0.0000000e+00 
0.0000000e+00 0.0000000e+00 0.0000000e+00 
TOTAL_DISPLACEMENT 3 101  float
0.0000000e+00 0.0000000e+00 0.0000000e+00 
0.0000000e+00 0.0000000e+00 0.0000000e+00 
0.0000000e+00 0.0000000e+00 0.0000000e+00 
8.0733986e-18 3.9660800e-18 0.0000000e+00 
0.0000000e+00 0.0000000e+00 0.0000000e+00 
0.0000000e+00 0.0000000e+00 0.0000000e+00 
1.9359835e-17 6.1437488e-18 0.0000000e+00 
2.0195798e-17 1.0339265e-17 0.0000000e+00 
0.0000000e+00 0.0000000e+00 0.0000000e+00 
0.0000000e+00 0.0000000e+00 0.0000000e+00 
1.4623470e-17 1.7779559e-18 0.0000000e+00 
4.0789308e-17 1.6993345e-17 0.0000000e+00 
2.8021273e-17 1.3699749e-17 0.0000000e+00 
3.7628506e-17 1.1792726e-17 0.0000000e+00 
0.0000000e+00 0.0000000e+00 0.0000000e+00 
0.0000000e+00 0.0000000e+00 0.0000000e+00 
1.2772514e-17 -1.5514023e-18 0.0000000e+00 
6.5516357e-17 2.9235025e-17 0.0000000e+00 
2.6356795e-17 3.1003050e-18 0.0000000e+00 
5.9762641e-17 1.8595151e-17 0.0000000e+00 
4.2563088e-17 2.9429620e-17 0.0000000e+00 
4.3542060e-17 1.2189553e-17 0.0000000e+00 
0.0000000e+00 0.0000000e+00 0.0000000e+00 
9.2882761e-17 4.4042818e-17 0.0000000e+00 
9.9361319e-17 5.4953314e-17 0.0000000e+00 
5.6610547e-17 4.1891480e-17 0.0000000e+00 
6.2264141e-17 2.4889087e-17 0.0000000e+00 
0.0000000e+00 0.0000000e+00 0.0000000e+00 
1.3151625e-16 7.9913065e-17 0.0000000e+00 
9.3699638e-17 5.3926270e-17 0.0000000e+00 
1.4455901e-16 9.3194509e-17 0.0000000e+00 
7.4561948e-17 6.1706330e-17 0.0000000e+00 
0.0000000e+00 0.0000000e+00 0.0000000e+00 
1.3945312e-16 1.1604015e-16 0.0000000e+00 
1.7807113e-16 1.4775612e-16 0.0000000e+00 
1.6717966e-16 1.3767315e-16 0.0000000e+00 
6.4056489e-17 3.0741721e-17 0.0000000e+00 
0.0000000e+00 0.0000000e+00 0.0000000e+00 
2.3720898e-16 1.8326746e-16 0.0000000e+00 
2.1677454e-16 1.7047202e-16 0.0000000e+00 
1.6951277e-16 1.1188692e-16 0.0000000e+00 
6.9829601e-17 8.3841677e-17 0.0000000e+00 
3.4104172e-16 1.9374800e-16 0.0000000e+00 
0.0000000e+00 0.0000000e+00 0.0000000e+00 
2.4180453e-16 1.2730840e-16 0.0000000e+00 
2.0909057e-16 9.2650039e-17 0.0000000e+00 
2.6103893e-17 -8.6144667e-19 0.0000000e+00 
2.3442492e-16 3.3586945e-16 0.0000000e+00 
0.0000000e+00 0.0000000e+00 0.0000000e+00 
1.6674759e-16 1.8640712e-16 0.0000000e+00 
1.1535075e-16 9.2128710e-17 0.0000000e+00 
-3.5095874e-17 1.7646669e-17 0.0000000e+00 
3.3363691e-16 1.9090090e-16 0.0000000e+00 
1.6129215e-16 1.6889395e-16 0.0000000e+00 
0.0000000e+00 0.0000000e+00 0.0000000e+00 
5.4668102e-17 -8.2309824e-17 0.0000000e+00 
-3.2870497e-17 -8.1850296e-17 0.0000000e+00 
2.5661271e-16 1.6736652e-16 0.0000000e+00 
7.7372906e-17 -1.2784244e-16 0.0000000e+00 
0.0000000e+00 0.0000000e+00 0.0000000e+00 
1.6079791e-17 -2.1237388e-16 0.0000000e+00 
-2.5219488e-17 -8.3879694e-17 0.0000000e+00 
1.8443203e-16 -2.8443885e-16 0.0000000e+00 
5.2377675e-17 -2.3726084e-16 0.0000000e+00 
0.0000000e+00 0.0000000e+00 0.0000000e+00 
-5.7891476e-18 -1.9114843e-16 0.0000000e+00 
1.3964645e-17 -5.5614198e-17 0.0000000e+00 
3.6377531e-17 -2.2281278e-16 0.0000000e+00 
1.7813424e-17 -2.0982482e-16 0.0000000e+00 
0.0000000e+00 0.0000000e+00 0.0000000e+00 
1.6136775e-17 -1.1561143e-16 0.0000000e+00 
1.8334773e-17 -5.4229686e-17 0.0000000e+00 
-1.1473707e-16 4.6311001e-18 0.0000000e+00 
-1.9018846e-17 -1.2372584e-16 0.0000000e+00 
0.0000000e+00 0.0000000e+00 0.0000000e+00 
4.1621340e-17 -1.0853505e-16 0.0000000e+00 
2.9201630e-17 -4.3016297e-17 0.0000000e+00 
-1.0626447e-16 -1.2884897e-16 0.0000000e+00 
-7.9486647e-18 -8.3583107e-17 0.0000000e+00 
0.0000000e+00 0.0000000e+00 0.0000000e+00 
2.9006653e-17 -4.8070758e-17 0.0000000e+00 
-8.1121682e-17 -8.0257153e-17 0.0000000e+00 
1.5692427e-17 -1.4490563e-17 0.0000000e+00 
-1.1618906e-17 -2.8695054e-17 0.0000000e+00 
0.0000000e+00 0.0000000e+00 0.0000000e+00 
7.8198107e-18 -1.3047854e-17 0.0000000e+00 
-4.3485424e-17 -1.3665620e-17 0.0000000e+00 
1.0633255e-17 -6.0685287e-18 0.0000000e+00 
-9.4438847e-18 -5.1201818e-19 0.0000000e+00 
0.0000000e+00 0.0000000e+00 0.0000000e+00 
-1.7555875e-17 2.8211708e-19 0.0000000e+00 
-6.5333594e-19 1.4551610e-18 0.0000000e+00 
0.0000000e+00 0.0000000e+00 0.0000000e+00 
1.4946880e-18 4.6329657e-19 0.0000000e+00 
-3.9280487e-18 1.2173075e-18 0.0000000e+00 
-7.3437930e-18 9.1126139e-20 0.0000000e+00 
0.0000000e+00 0.0000000e+00 0.0000000e+00 
0.0000000e+00 0.0000000e+00 0.0000000e+00 
0.0000000e+00 0.0000000e+00 0.0000000e+00 
0.0000000e+00 0.0000000e+00 0.0000000e+00 
0.0000000e+00 0.0000000e+00 0.0000000e+00 
CELL_DATA 38
FIELD FieldData 0
