# vtk DataFile Version 4.0
vtk output
ASCII
DATASET UNSTRUCTURED_GRID
POINTS 101 float
0.0000000e+00 0.0000000e+00 0.0000000e+00 
0.0000000e+00 2.5000000e-01 0.0000000e+00 
2.5000000e-01 0.0000000e+00 0.0000000e+00 
2.5000000e-01 2.5000000e-01 0.0000000e+00 
0.0000000e+00 5.0000000e-01 0.0000000e+00 
5.0000000e-01 0.0000000e+00 0.0000000e+00 
3.5416666e-01 5.0558227e-01 0.0000000e+00 
6.0416669e-01 2.5558227e-01 0.0000000e+00 
0.0000000e+00 7.5000000e-01 0.0000000e+00 
7.5000000e-01 0.0000000e+00 0.0000000e+00 
2.5000000e-01 7.5000000e-01 0.0000000e+00 
7.0833331e-01 5.1116455e-01 0.0000000e+00 
8.5416669e-01 2.5558227e-01 0.0000000e+00 
6.0416669e-01 7.5558227e-01 0.0000000e+00 
0.0000000e+00 1.0000000e+00 0.0000000e+00 
1.0000000e+00 0.0000000e+00 0.0000000e+00 
2.5000000e-01 1.0000000e+00 0.0000000e+00 
9.7916669e-01 5.3907591e-01 0.0000000e+00 
5.0000000e-01 1.0000000e+00 0.0000000e+00 
8.5416669e-01 7.5558227e-01 0.0000000e+00 
1.1250000e+00 2.8349364e-01 0.0000000e+00 
7.5000000e-01 1.0000000e+00 0.0000000e+00 
1.2500000e+00 0.0000000e+00 0.0000000e+00 
1.1250000e+00 7.8349364e-01 0.0000000e+00 
1.2500000e+00 5.6698728e-01 0.0000000e+00 
1.3750000e+00 2.8349364e-01 0.0000000e+00 
1.0000000e+00 1.0000000e+00 0.0000000e+00 
1.5000000e+00 0.0000000e+00 0.0000000e+00 
1.3750000e+00 7.8349364e-01 0.0000000e+00 
1.2500000e+00 1.0000000e+00 0.0000000e+00 
1.5000000e+00 5.6698728e-01 0.0000000e+00 
1.6250000e+00 2.8349364e-01 0.0000000e+00 
1.7500000e+00 0.0000000e+00 0.0000000e+00 
1.5000000e+00 1.0000000e+00 0.0000000e+00 
1.6250000e+00 7.8349364e-01 0.0000000e+00 
1.7500000e+00 5.6698728e-01 0.0000000e+00 
1.8750000e+00 2.8349364e-01 0.0000000e+00 
2.0000000e+00 0.0000000e+00 0.0000000e+00 
1.7500000e+00 1.0000000e+00 0.0000000e+00 
1.8750000e+00 7.8349364e-01 0.0000000e+00 
2.0000000e+00 5.6698728e-01 0.0000000e+00 
2.1250000e+00 2.8349364e-01 0.0000000e+00 
2.0000000e+00 1.0000000e+00 0.0000000e+00 
2.2500000e+00 0.0000000e+00 0.0000000e+00 
2.1250000e+00 7.8349364e-01 0.0000000e+00 
2.2500000e+00 5.6698728e-01 0.0000000e+00 
2.3750000e+00 2.8349364e-01 0.0000000e+00 
2.2500000e+00 1.0000000e+00 0.0000000e+00 
2.5000000e+00 0.0000000e+00 0.0000000e+00 
2.3750000e+00 7.8349364e-01 0.0000000e+00 
2.5000000e+00 5.6698728e-01 0.0000000e+00 
2.6250000e+00 2.8349364e-01 0.0000000e+00 
2.5000000e+00 1.0000000e+00 0.0000000e+00 
2.6250000e+00 7.8349364e-01 0.0000000e+00 
2.7500000e+00 0.0000000e+00 0.0000000e+00 
2.7500000e+00 5.6698728e-01 0.0000000e+00 
2.8750000e+00 2.8349364e-01 0.0000000e+00 
2.7500000e+00 1.0000000e+00 0.0000000e+00 
2.8750000e+00 7.8349364e-01 0.0000000e+00 
3.0000000e+00 0.0000000e+00 0.0000000e+00 
3.0000000e+00 5.0000000e-01 0.0000000e+00 
3.1250000e+00 2.1650635e-01 0.0000000e+00 
3.0000000e+00 1.0000000e+00 0.0000000e+00 
3.1250000e+00 7.1650636e-01 0.0000000e+00 
3.2500000e+00 0.0000000e+00 0.0000000e+00 
3.2500000e+00 4.3301269e-01 0.0000000e+00 
3.3750000e+00 2.1650635e-01 0.0000000e+00 
3.2500000e+00 1.0000000e+00 0.0000000e+00 
3.3750000e+00 7.1650636e-01 0.0000000e+00 
3.5000000e+00 0.0000000e+00 0.0000000e+00 
3.5000000e+00 4.3301269e-01 0.0000000e+00 
3.6250000e+00 2.1650635e-01 0.0000000e+00 
3.5000000e+00 1.0000000e+00 0.0000000e+00 
3.6250000e+00 7.1650636e-01 0.0000000e+00 
3.7500000e+00 0.0000000e+00 0.0000000e+00 
3.7500000e+00 4.3301269e-01 0.0000000e+00 
3.8750000e+00 2.1650635e-01 0.0000000e+00 
3.7500000e+00 1.0000000e+00 0.0000000e+00 
3.8750000e+00 7.1650636e-01 0.0000000e+00 
4.0000000e+00 0.0000000e+00 0.0000000e+00 
4.0208335e+00 4.6092409e-01 0.0000000e+00 
4.0000000e+00 1.0000000e+00 0.0000000e+00 
4.1458335e+00 2.4441773e-01 0.0000000e+00 
4.1458335e+00 7.4441773e-01 0.0000000e+00 
4.2500000e+00 0.0000000e+00 0.0000000e+00 
4.2916665e+00 4.8883545e-01 0.0000000e+00 
4.2500000e+00 1.0000000e+00 0.0000000e+00 
4.3958335e+00 2.4441773e-01 0.0000000e+00 
4.3958335e+00 7.4441773e-01 0.0000000e+00 
4.5000000e+00 0.0000000e+00 0.0000000e+00 
4.5000000e+00 1.0000000e+00 0.0000000e+00 
4.6458335e+00 4.9441773e-01 0.0000000e+00 
4.7500000e+00 0.0000000e+00 0.0000000e+00 
4.7500000e+00 2.5000000e-01 0.0000000e+00 
4.7500000e+00 7.5000000e-01 0.0000000e+00 
4.7500000e+00 1.0000000e+00 0.0000000e+00 
5.0000000e+00 0.0000000e+00 0.0000000e+00 
5.0000000e+00 2.5000000e-01 0.0000000e+00 
5.0000000e+00 5.0000000e-01 0.0000000e+00 
5.0000000e+00 7.5000000e-01 0.0000000e+00 
5.0000000e+00 1.0000000e+00 0.0000000e+00 

CELLS 38 266
6 0 5 4 2 3 1
6 79 89 85 84 87 82
6 62 52 55 57 53 58
6 85 89 98 87 93 91
6 79 85 75 82 80 76
6 55 52 45 53 49 50
6 75 85 81 80 83 78
6 79 75 69 76 71 74
6 45 52 42 49 47 44
6 55 45 48 50 46 51
6 69 75 65 71 70 66
6 65 75 72 70 73 68
6 69 65 59 66 61 64
6 59 65 55 61 60 56
6 37 48 45 43 46 41
6 100 90 98 95 94 99
6 26 18 11 21 13 19
6 11 18 4 13 10 6
6 26 11 24 19 17 23
6 24 11 15 17 12 20
6 26 24 33 23 28 29
6 33 24 35 28 30 34
6 35 24 27 30 25 31
6 33 35 42 34 39 38
6 42 35 45 39 40 44
6 45 35 37 40 36 41
6 15 27 24 22 25 20
6 96 98 89 97 93 92
6 81 72 75 77 73 78
6 14 4 18 8 10 16
6 5 15 11 9 12 7
6 48 59 55 54 56 51
6 90 81 85 86 83 88
6 27 37 35 32 36 31
6 72 62 65 67 63 68
6 62 55 65 58 60 63
6 90 85 98 88 91 94
6 5 11 4 7 6 3

CELL_TYPES 38
22
22
22
22
22
22
22
22
22
22
22
22
22
22
22
22
22
22
22
22
22
22
22
22
22
22
22
22
22
22
22
22
22
22
22
22
22
22
POINT_DATA 101
FIELD FieldData 2
DISPLACEMENT 3 101  float
0.0000000e+00 0.0000000e+00 0.0000000e+00 
0.0000000e+00 0.0000000e+00 0.0000000e+00 
0.0000000e+00 0.0000000e+00 0.0000000e+00 
3.1119225e-18 1.5375820e-18 0.0000000e+00 
0.0000000e+00 0.0000000e+00 0.0000000e+00 
0.0000000e+00 0.0000000e+00 0.0000000e+00 
7.5792905e-18 2.2946180e-18 0.0000000e+00 
7.9017942e-18 3.7075993e-18 0.0000000e+00 
0.0000000e+00 0.0000000e+00 0.0000000e+00 
0.0000000e+00 0.0000000e+00 0.0000000e+00 
5.9215023e-18 6.1463412e-19 0.0000000e+00 
1.6063484e-17 6.6286768e-18 0.0000000e+00 
1.1236182e-17 6.1669474e-18 0.0000000e+00 
1.5627520e-17 3.7556717e-18 0.0000000e+00 
0.0000000e+00 0.0000000e+00 0.0000000e+00 
0.0000000e+00 0.0000000e+00 0.0000000e+00 
5.4410845e-18 -5.8992288e-19 0.0000000e+00 
2.5977524e-17 1.2329158e-17 0.0000000e+00 
1.1442474e-17 6.7775783e-19 0.0000000e+00 
2.4535343e-17 8.4305396e-18 0.0000000e+00 
1.7088127e-17 1.1994572e-17 0.0000000e+00 
1.7804896e-17 4.4824198e-18 0.0000000e+00 
0.0000000e+00 0.0000000e+00 0.0000000e+00 
3.7391836e-17 1.7363893e-17 0.0000000e+00 
4.0278882e-17 2.2992827e-17 0.0000000e+00 
2.3246606e-17 1.7797674e-17 0.0000000e+00 
2.5186369e-17 1.0036899e-17 0.0000000e+00 
0.0000000e+00 0.0000000e+00 0.0000000e+00 
5.2949039e-17 3.2000696e-17 0.0000000e+00 
3.8313676e-17 2.1618585e-17 0.0000000e+00 
5.8520600e-17 3.8364941e-17 0.0000000e+00 
2.9530421e-17 2.5404194e-17 0.0000000e+00 
0.0000000e+00 0.0000000e+00 0.0000000e+00 
5.6029668e-17 4.6710168e-17 0.0000000e+00 
7.1344076e-17 6.0438613e-17 0.0000000e+00 
6.8149498e-17 5.5581468e-17 0.0000000e+00 
2.5658018e-17 1.1756424e-17 0.0000000e+00 
0.0000000e+00 0.0000000e+00 0.0000000e+00 
9.5268125e-17 7.4362736e-17 0.0000000e+00 
8.7415289e-17 6.7725935e-17 0.0000000e+00 
6.7825899e-17 4.7269028e-17 0.0000000e+00 
2.8433364e-17 3.2899292e-17 0.0000000e+00 
1.3639737e-16 7.6328687e-17 0.0000000e+00 
0.0000000e+00 0.0000000e+00 0.0000000e+00 
9.7708579e-17 4.6855983e-17 0.0000000e+00 
8.4699622e-17 3.9945981e-17 0.0000000e+00 
1.0366352e-17 -9.4936584e-19 0.0000000e+00 
9.3604665e-17 1.2748906e-16 0.0000000e+00 
0.0000000e+00 0.0000000e+00 0.0000000e+00 
6.6784697e-17 7.9389811e-17 0.0000000e+00 
4.6711574e-17 3.8314609e-17 0.0000000e+00 
-1.4198913e-17 5.3569817e-18 0.0000000e+00 
1.3427366e-16 8.4025668e-17 0.0000000e+00 
6.5065789e-17 6.4685385e-17 0.0000000e+00 
0.0000000e+00 0.0000000e+00 0.0000000e+00 
2.2657592e-17 -3.2714639e-17 0.0000000e+00 
-1.3502811e-17 -3.1653132e-17 0.0000000e+00 
1.0320170e-16 6.4851225e-17 0.0000000e+00 
3.1106981e-17 -5.1446558e-17 0.0000000e+00 
0.0000000e+00 0.0000000e+00 0.0000000e+00 
6.5754593e-18 -8.5591548e-17 0.0000000e+00 
-1.0233457e-17 -3.3320016e-17 0.0000000e+00 
7.5424499e-17 -1.1635531e-16 0.0000000e+00 
2.1116968e-17 -9.7000976e-17 0.0000000e+00 
0.0000000e+00 0.0000000e+00 0.0000000e+00 
-2.5496498e-18 -7.6243963e-17 0.0000000e+00 
5.8699673e-18 -2.3414469e-17 0.0000000e+00 
1.4703820e-17 -9.2901839e-17 0.0000000e+00 
7.3172662e-18 -8.2598199e-17 0.0000000e+00 
0.0000000e+00 0.0000000e+00 0.0000000e+00 
6.4909438e-18 -4.5608248e-17 0.0000000e+00 
7.3711371e-18 -2.2003282e-17 0.0000000e+00 
-4.6600107e-17 3.3579354e-18 0.0000000e+00 
-7.7015553e-18 -4.7893066e-17 0.0000000e+00 
0.0000000e+00 0.0000000e+00 0.0000000e+00 
1.6318465e-17 -4.4327312e-17 0.0000000e+00 
1.1662763e-17 -1.7423588e-17 0.0000000e+00 
-4.2163904e-17 -5.2165040e-17 0.0000000e+00 
-3.1171675e-18 -3.2779169e-17 0.0000000e+00 
0.0000000e+00 0.0000000e+00 0.0000000e+00 
1.1517622e-17 -1.9287911e-17 0.0000000e+00 
-3.2891699e-17 -3.2590387e-17 0.0000000e+00 
6.1788328e-18 -5.7648636e-18 0.0000000e+00 
-4.6710029e-18 -1.1441815e-17 0.0000000e+00 
0.0000000e+00 0.0000000e+00 0.0000000e+00 
3.1441882e-18 -5.1961650e-18 0.0000000e+00 
-1.7712154e-17 -5.7174836e-18 0.0000000e+00 
4.2511099e-18 -2.4966832e-18 0.0000000e+00 
-3.7788654e-18 -2.1445817e-19 0.0000000e+00 
0.0000000e+00 0.0000000e+00 0.0000000e+00 
-7.0949639e-18 9.2201280e-20 0.0000000e+00 
-2.2722364e-19 5.6620823e-19 0.0000000e+00 
0.0000000e+00 0.0000000e+00 0.0000000e+00 
6.7262285e-19 1.8598408e-19 0.0000000e+00 
-1.5700071e-18 4.9408656e-19 0.0000000e+00 
-2.9368464e-18 2.2417750e-20 0.0000000e+00 
0.0000000e+00 0.0000000e+00 0.0000000e+00 
0.0000000e+00 0.0000000e+00 0.0000000e+00 
0.0000000e+00 0.0000000e+00 0.0000000e+00 
0.0000000e+00 0.0000000e+00 0.0000000e+00 
0.0000000e+00 0.0000000e+00 0.0000000e+00 
TOTAL_DISPLACEMENT 3 101  float
0.0000000e+00 0.0000000e+00 0.0000000e+00 
0.0000000e+00 0.0000000e+00 0.0000000e+00 
0.0000000e+00 0.0000000e+00 0.0000000e+00 
7.2954187e-18 3.5816842e-18 0.0000000e+00 
0.0000000e+00 0.0000000e+00 0.0000000e+00 
0.0000000e+00 0.0000000e+00 0.0000000e+00 
1.7465012e-17 5.5700945e-18 0.0000000e+00 
1.8220349e-17 9.4123658e-18 0.0000000e+00 
0.0000000e+00 0.0000000e+00 0.0000000e+00 
0.0000000e+00 0.0000000e+00 0.0000000e+00 
1.3143093e-17 1.6242974e-18 0.0000000e+00 
3.6773439e-17 1.5336175e-17 0.0000000e+00 
2.5212225e-17 1.2158011e-17 0.0000000e+00 
3.3721626e-17 1.0853807e-17 0.0000000e+00 
0.0000000e+00 0.0000000e+00 0.0000000e+00 
0.0000000e+00 0.0000000e+00 0.0000000e+00 
1.1412244e-17 -1.4039215e-18 0.0000000e+00 
5.9021977e-17 2.6152735e-17 0.0000000e+00 
2.3496176e-17 2.9308655e-18 0.0000000e+00 
5.3628806e-17 1.6487516e-17 0.0000000e+00 
3.8291054e-17 2.6430978e-17 0.0000000e+00 
3.9090835e-17 1.1068948e-17 0.0000000e+00 
0.0000000e+00 0.0000000e+00 0.0000000e+00 
8.3534800e-17 3.9701847e-17 0.0000000e+00 
8.9291593e-17 4.9205107e-17 0.0000000e+00 
5.0798895e-17 3.7442062e-17 0.0000000e+00 
5.5967550e-17 2.2379863e-17 0.0000000e+00 
0.0000000e+00 0.0000000e+00 0.0000000e+00 
1.1827899e-16 7.1912892e-17 0.0000000e+00 
8.4121218e-17 4.8521624e-17 0.0000000e+00 
1.2992887e-16 8.3603277e-17 0.0000000e+00 
6.7179341e-17 5.5355277e-17 0.0000000e+00 
0.0000000e+00 0.0000000e+00 0.0000000e+00 
1.2544571e-16 1.0436262e-16 0.0000000e+00 
1.6023510e-16 1.3264647e-16 0.0000000e+00 
1.5014229e-16 1.2377778e-16 0.0000000e+00 
5.7641982e-17 2.7802616e-17 0.0000000e+00 
0.0000000e+00 0.0000000e+00 0.0000000e+00 
2.1339195e-16 1.6467678e-16 0.0000000e+00 
1.9492070e-16 1.5354054e-16 0.0000000e+00 
1.5255630e-16 1.0006967e-16 0.0000000e+00 
6.2721261e-17 7.5616855e-17 0.0000000e+00 
3.0694237e-16 1.7466583e-16 0.0000000e+00 
0.0000000e+00 0.0000000e+00 0.0000000e+00 
2.1737740e-16 1.1559440e-16 0.0000000e+00 
1.8791566e-16 8.2663547e-17 0.0000000e+00 
2.3512305e-17 -6.2410519e-19 0.0000000e+00 
2.1102377e-16 3.0399719e-16 0.0000000e+00 
0.0000000e+00 0.0000000e+00 0.0000000e+00 
1.5005142e-16 1.6655967e-16 0.0000000e+00 
1.0367285e-16 8.2550058e-17 0.0000000e+00 
-3.1546147e-17 1.6307424e-17 0.0000000e+00 
3.0006852e-16 1.6989448e-16 0.0000000e+00 
1.4502570e-16 1.5272261e-16 0.0000000e+00 
0.0000000e+00 0.0000000e+00 0.0000000e+00 
4.9003705e-17 -7.4131159e-17 0.0000000e+00 
-2.9494792e-17 -7.3937016e-17 0.0000000e+00 
2.3081230e-16 1.5115372e-16 0.0000000e+00 
6.9596158e-17 -1.1498081e-16 0.0000000e+00 
0.0000000e+00 0.0000000e+00 0.0000000e+00 
1.4435925e-17 -1.9097601e-16 0.0000000e+00 
-2.2661124e-17 -7.5549688e-17 0.0000000e+00 
1.6557591e-16 -2.5535002e-16 0.0000000e+00 
4.7098433e-17 -2.1301060e-16 0.0000000e+00 
0.0000000e+00 0.0000000e+00 0.0000000e+00 
-5.1517350e-18 -1.7208744e-16 0.0000000e+00 
1.2497153e-17 -4.9760582e-17 0.0000000e+00 
3.2701576e-17 -1.9958734e-16 0.0000000e+00 
1.5984107e-17 -1.8917528e-16 0.0000000e+00 
0.0000000e+00 0.0000000e+00 0.0000000e+00 
1.4514040e-17 -1.0420938e-16 0.0000000e+00 
1.6491988e-17 -4.8728866e-17 0.0000000e+00 
-1.0308704e-16 3.7916164e-18 0.0000000e+00 
-1.7093457e-17 -1.1175258e-16 0.0000000e+00 
0.0000000e+00 0.0000000e+00 0.0000000e+00 
3.7541724e-17 -9.7453218e-17 0.0000000e+00 
2.6285939e-17 -3.8660400e-17 0.0000000e+00 
-9.5723491e-17 -1.1580771e-16 0.0000000e+00 
-7.1693729e-18 -7.5388315e-17 0.0000000e+00 
0.0000000e+00 0.0000000e+00 0.0000000e+00 
2.6127246e-17 -4.3248781e-17 0.0000000e+00 
-7.2898759e-17 -7.2109556e-17 0.0000000e+00 
1.4147718e-17 -1.3049347e-17 0.0000000e+00 
-1.0451156e-17 -2.5834599e-17 0.0000000e+00 
0.0000000e+00 0.0000000e+00 0.0000000e+00 
7.0337632e-18 -1.1748812e-17 0.0000000e+00 
-3.9057384e-17 -1.2236249e-17 0.0000000e+00 
9.5704772e-18 -5.4443580e-18 0.0000000e+00 
-8.4991683e-18 -4.5840364e-19 0.0000000e+00 
0.0000000e+00 0.0000000e+00 0.0000000e+00 
-1.5782135e-17 2.5906676e-19 0.0000000e+00 
-5.9653004e-19 1.3136089e-18 0.0000000e+00 
0.0000000e+00 0.0000000e+00 0.0000000e+00 
1.3265323e-18 4.1680057e-19 0.0000000e+00 
-3.5355470e-18 1.0937859e-18 0.0000000e+00 
-6.6095813e-18 8.5521706e-20 0.0000000e+00 
0.0000000e+00 0.0000000e+00 0.0000000e+00 
0.0000000e+00 0.0000000e+00 0.0000000e+00 
0.0000000e+00 0.0000000e+00 0.0000000e+00 
0.0000000e+00 0.0000000e+00 0.0000000e+00 
0.0000000e+00 0.0000000e+00 0.0000000e+00 
CELL_DATA 38
FIELD FieldData 0
