# vtk DataFile Version 4.0
vtk output
ASCII
DATASET UNSTRUCTURED_GRID
POINTS 101 float
0.0000000e+00 0.0000000e+00 0.0000000e+00 
0.0000000e+00 2.5000000e-01 0.0000000e+00 
2.5000000e-01 0.0000000e+00 0.0000000e+00 
2.5000000e-01 2.5000000e-01 0.0000000e+00 
0.0000000e+00 5.0000000e-01 0.0000000e+00 
5.0000000e-01 0.0000000e+00 0.0000000e+00 
3.5416666e-01 5.0558227e-01 0.0000000e+00 
6.0416669e-01 2.5558227e-01 0.0000000e+00 
0.0000000e+00 7.5000000e-01 0.0000000e+00 
7.5000000e-01 0.0000000e+00 0.0000000e+00 
2.5000000e-01 7.5000000e-01 0.0000000e+00 
7.0833331e-01 5.1116455e-01 0.0000000e+00 
8.5416669e-01 2.5558227e-01 0.0000000e+00 
6.0416669e-01 7.5558227e-01 0.0000000e+00 
0.0000000e+00 1.0000000e+00 0.0000000e+00 
1.0000000e+00 0.0000000e+00 0.0000000e+00 
2.5000000e-01 1.0000000e+00 0.0000000e+00 
9.7916669e-01 5.3907591e-01 0.0000000e+00 
5.0000000e-01 1.0000000e+00 0.0000000e+00 
8.5416669e-01 7.5558227e-01 0.0000000e+00 
1.1250000e+00 2.8349364e-01 0.0000000e+00 
7.5000000e-01 1.0000000e+00 0.0000000e+00 
1.2500000e+00 0.0000000e+00 0.0000000e+00 
1.1250000e+00 7.8349364e-01 0.0000000e+00 
1.2500000e+00 5.6698728e-01 0.0000000e+00 
1.3750000e+00 2.8349364e-01 0.0000000e+00 
1.0000000e+00 1.0000000e+00 0.0000000e+00 
1.5000000e+00 0.0000000e+00 0.0000000e+00 
1.3750000e+00 7.8349364e-01 0.0000000e+00 
1.2500000e+00 1.0000000e+00 0.0000000e+00 
1.5000000e+00 5.6698728e-01 0.0000000e+00 
1.6250000e+00 2.8349364e-01 0.0000000e+00 
1.7500000e+00 0.0000000e+00 0.0000000e+00 
1.5000000e+00 1.0000000e+00 0.0000000e+00 
1.6250000e+00 7.8349364e-01 0.0000000e+00 
1.7500000e+00 5.6698728e-01 0.0000000e+00 
1.8750000e+00 2.8349364e-01 0.0000000e+00 
2.0000000e+00 0.0000000e+00 0.0000000e+00 
1.7500000e+00 1.0000000e+00 0.0000000e+00 
1.8750000e+00 7.8349364e-01 0.0000000e+00 
2.0000000e+00 5.6698728e-01 0.0000000e+00 
2.1250000e+00 2.8349364e-01 0.0000000e+00 
2.0000000e+00 1.0000000e+00 0.0000000e+00 
2.2500000e+00 0.0000000e+00 0.0000000e+00 
2.1250000e+00 7.8349364e-01 0.0000000e+00 
2.2500000e+00 5.6698728e-01 0.0000000e+00 
2.3750000e+00 2.8349364e-01 0.0000000e+00 
2.2500000e+00 1.0000000e+00 0.0000000e+00 
2.5000000e+00 0.0000000e+00 0.0000000e+00 
2.3750000e+00 7.8349364e-01 0.0000000e+00 
2.5000000e+00 5.6698728e-01 0.0000000e+00 
2.6250000e+00 2.8349364e-01 0.0000000e+00 
2.5000000e+00 1.0000000e+00 0.0000000e+00 
2.6250000e+00 7.8349364e-01 0.0000000e+00 
2.7500000e+00 0.0000000e+00 0.0000000e+00 
2.7500000e+00 5.6698728e-01 0.0000000e+00 
2.8750000e+00 2.8349364e-01 0.0000000e+00 
2.7500000e+00 1.0000000e+00 0.0000000e+00 
2.8750000e+00 7.8349364e-01 0.0000000e+00 
3.0000000e+00 0.0000000e+00 0.0000000e+00 
3.0000000e+00 5.0000000e-01 0.0000000e+00 
3.1250000e+00 2.1650635e-01 0.0000000e+00 
3.0000000e+00 1.0000000e+00 0.0000000e+00 
3.1250000e+00 7.1650636e-01 0.0000000e+00 
3.2500000e+00 0.0000000e+00 0.0000000e+00 
3.2500000e+00 4.3301269e-01 0.0000000e+00 
3.3750000e+00 2.1650635e-01 0.0000000e+00 
3.2500000e+00 1.0000000e+00 0.0000000e+00 
3.3750000e+00 7.1650636e-01 0.0000000e+00 
3.5000000e+00 0.0000000e+00 0.0000000e+00 
3.5000000e+00 4.3301269e-01 0.0000000e+00 
3.6250000e+00 2.1650635e-01 0.0000000e+00 
3.5000000e+00 1.0000000e+00 0.0000000e+00 
3.6250000e+00 7.1650636e-01 0.0000000e+00 
3.7500000e+00 0.0000000e+00 0.0000000e+00 
3.7500000e+00 4.3301269e-01 0.0000000e+00 
3.8750000e+00 2.1650635e-01 0.0000000e+00 
3.7500000e+00 1.0000000e+00 0.0000000e+00 
3.8750000e+00 7.1650636e-01 0.0000000e+00 
4.0000000e+00 0.0000000e+00 0.0000000e+00 
4.0208335e+00 4.6092409e-01 0.0000000e+00 
4.0000000e+00 1.0000000e+00 0.0000000e+00 
4.1458335e+00 2.4441773e-01 0.0000000e+00 
4.1458335e+00 7.4441773e-01 0.0000000e+00 
4.2500000e+00 0.0000000e+00 0.0000000e+00 
4.2916665e+00 4.8883545e-01 0.0000000e+00 
4.2500000e+00 1.0000000e+00 0.0000000e+00 
4.3958335e+00 2.4441773e-01 0.0000000e+00 
4.3958335e+00 7.4441773e-01 0.0000000e+00 
4.5000000e+00 0.0000000e+00 0.0000000e+00 
4.5000000e+00 1.0000000e+00 0.0000000e+00 
4.6458335e+00 4.9441773e-01 0.0000000e+00 
4.7500000e+00 0.0000000e+00 0.0000000e+00 
4.7500000e+00 2.5000000e-01 0.0000000e+00 
4.7500000e+00 7.5000000e-01 0.0000000e+00 
4.7500000e+00 1.0000000e+00 0.0000000e+00 
5.0000000e+00 0.0000000e+00 0.0000000e+00 
5.0000000e+00 2.5000000e-01 0.0000000e+00 
5.0000000e+00 5.0000000e-01 0.0000000e+00 
5.0000000e+00 7.5000000e-01 0.0000000e+00 
5.0000000e+00 1.0000000e+00 0.0000000e+00 

CELLS 38 266
6 0 5 4 2 3 1
6 79 89 85 84 87 82
6 62 52 55 57 53 58
6 85 89 98 87 93 91
6 79 85 75 82 80 76
6 55 52 45 53 49 50
6 75 85 81 80 83 78
6 79 75 69 76 71 74
6 45 52 42 49 47 44
6 55 45 48 50 46 51
6 69 75 65 71 70 66
6 65 75 72 70 73 68
6 69 65 59 66 61 64
6 59 65 55 61 60 56
6 37 48 45 43 46 41
6 100 90 98 95 94 99
6 26 18 11 21 13 19
6 11 18 4 13 10 6
6 26 11 24 19 17 23
6 24 11 15 17 12 20
6 26 24 33 23 28 29
6 33 24 35 28 30 34
6 35 24 27 30 25 31
6 33 35 42 34 39 38
6 42 35 45 39 40 44
6 45 35 37 40 36 41
6 15 27 24 22 25 20
6 96 98 89 97 93 92
6 81 72 75 77 73 78
6 14 4 18 8 10 16
6 5 15 11 9 12 7
6 48 59 55 54 56 51
6 90 81 85 86 83 88
6 27 37 35 32 36 31
6 72 62 65 67 63 68
6 62 55 65 58 60 63
6 90 85 98 88 91 94
6 5 11 4 7 6 3

CELL_TYPES 38
22
22
22
22
22
22
22
22
22
22
22
22
22
22
22
22
22
22
22
22
22
22
22
22
22
22
22
22
22
22
22
22
22
22
22
22
22
22
POINT_DATA 101
FIELD FieldData 2
DISPLACEMENT 3 101  float
0.0000000e+00 0.0000000e+00 0.0000000e+00 
0.0000000e+00 0.0000000e+00 0.0000000e+00 
0.0000000e+00 0.0000000e+00 0.0000000e+00 
1.9449516e-18 9.6098876e-19 0.0000000e+00 
0.0000000e+00 0.0000000e+00 0.0000000e+00 
0.0000000e+00 0.0000000e+00 0.0000000e+00 
4.7370566e-18 1.4341363e-18 0.0000000e+00 
4.9386215e-18 2.3172495e-18 0.0000000e+00 
0.0000000e+00 0.0000000e+00 0.0000000e+00 
0.0000000e+00 0.0000000e+00 0.0000000e+00 
3.7009388e-18 3.8414632e-19 0.0000000e+00 
1.0039677e-17 4.1429229e-18 0.0000000e+00 
7.0226137e-18 3.8543424e-18 0.0000000e+00 
9.7671998e-18 2.3472948e-18 0.0000000e+00 
0.0000000e+00 0.0000000e+00 0.0000000e+00 
0.0000000e+00 0.0000000e+00 0.0000000e+00 
3.4006778e-18 -3.6870180e-19 0.0000000e+00 
1.6235952e-17 7.7057234e-18 0.0000000e+00 
7.1515463e-18 4.2359862e-19 0.0000000e+00 
1.5334589e-17 5.2690871e-18 0.0000000e+00 
1.0680079e-17 7.4966072e-18 0.0000000e+00 
1.1128060e-17 2.8015123e-18 0.0000000e+00 
0.0000000e+00 0.0000000e+00 0.0000000e+00 
2.3369897e-17 1.0852433e-17 0.0000000e+00 
2.5174301e-17 1.4370516e-17 0.0000000e+00 
1.4529128e-17 1.1123547e-17 0.0000000e+00 
1.5741480e-17 6.2730619e-18 0.0000000e+00 
0.0000000e+00 0.0000000e+00 0.0000000e+00 
3.3093147e-17 2.0000436e-17 0.0000000e+00 
2.3946047e-17 1.3511616e-17 0.0000000e+00 
3.6575376e-17 2.3978088e-17 0.0000000e+00 
1.8456514e-17 1.5877621e-17 0.0000000e+00 
0.0000000e+00 0.0000000e+00 0.0000000e+00 
3.5018542e-17 2.9193854e-17 0.0000000e+00 
4.4590048e-17 3.7774132e-17 0.0000000e+00 
4.2593439e-17 3.4738416e-17 0.0000000e+00 
1.6036261e-17 7.3477651e-18 0.0000000e+00 
0.0000000e+00 0.0000000e+00 0.0000000e+00 
5.9542578e-17 4.6476711e-17 0.0000000e+00 
5.4634555e-17 4.2328708e-17 0.0000000e+00 
4.2391187e-17 2.9543143e-17 0.0000000e+00 
1.7770852e-17 2.0562057e-17 0.0000000e+00 
8.5248360e-17 4.7705432e-17 0.0000000e+00 
0.0000000e+00 0.0000000e+00 0.0000000e+00 
6.1067866e-17 2.9284990e-17 0.0000000e+00 
5.2937263e-17 2.4966238e-17 0.0000000e+00 
6.4789703e-18 -5.9335366e-19 0.0000000e+00 
5.8502918e-17 7.9680667e-17 0.0000000e+00 
0.0000000e+00 0.0000000e+00 0.0000000e+00 
4.1740437e-17 4.9618634e-17 0.0000000e+00 
2.9194734e-17 2.3946631e-17 0.0000000e+00 
-8.8743203e-18 3.3481136e-18 0.0000000e+00 
8.3921040e-17 5.2516043e-17 0.0000000e+00 
4.0666118e-17 4.0428366e-17 0.0000000e+00 
0.0000000e+00 0.0000000e+00 0.0000000e+00 
1.4160995e-17 -2.0446649e-17 0.0000000e+00 
-8.4392573e-18 -1.9783206e-17 0.0000000e+00 
6.4501063e-17 4.0532015e-17 0.0000000e+00 
1.9441865e-17 -3.2154099e-17 0.0000000e+00 
0.0000000e+00 0.0000000e+00 0.0000000e+00 
4.1096620e-18 -5.3494720e-17 0.0000000e+00 
-6.3959106e-18 -2.0825010e-17 0.0000000e+00 
4.7140308e-17 -7.2722073e-17 0.0000000e+00 
1.3198105e-17 -6.0625609e-17 0.0000000e+00 
0.0000000e+00 0.0000000e+00 0.0000000e+00 
-1.5935311e-18 -4.7652475e-17 0.0000000e+00 
3.6687297e-18 -1.4634043e-17 0.0000000e+00 
9.1898873e-18 -5.8063652e-17 0.0000000e+00 
4.5732914e-18 -5.1623875e-17 0.0000000e+00 
0.0000000e+00 0.0000000e+00 0.0000000e+00 
4.0568399e-18 -2.8505157e-17 0.0000000e+00 
4.6069605e-18 -1.3752051e-17 0.0000000e+00 
-2.9125066e-17 2.0987096e-18 0.0000000e+00 
-4.8134719e-18 -2.9933165e-17 0.0000000e+00 
0.0000000e+00 0.0000000e+00 0.0000000e+00 
1.0199041e-17 -2.7704570e-17 0.0000000e+00 
7.2892264e-18 -1.0889743e-17 0.0000000e+00 
-2.6352441e-17 -3.2603148e-17 0.0000000e+00 
-1.9482298e-18 -2.0486981e-17 0.0000000e+00 
0.0000000e+00 0.0000000e+00 0.0000000e+00 
7.1985136e-18 -1.2054945e-17 0.0000000e+00 
-2.0557311e-17 -2.0368992e-17 0.0000000e+00 
3.8617704e-18 -3.6030399e-18 0.0000000e+00 
-2.9193768e-18 -7.1511344e-18 0.0000000e+00 
0.0000000e+00 0.0000000e+00 0.0000000e+00 
1.9651175e-18 -3.2476031e-18 0.0000000e+00 
-1.1070097e-17 -3.5734273e-18 0.0000000e+00 
2.6569436e-18 -1.5604270e-18 0.0000000e+00 
-2.3617909e-18 -1.3403636e-19 0.0000000e+00 
0.0000000e+00 0.0000000e+00 0.0000000e+00 
-4.4343527e-18 5.7625802e-20 0.0000000e+00 
-1.4201477e-19 3.5388014e-19 0.0000000e+00 
0.0000000e+00 0.0000000e+00 0.0000000e+00 
4.2038927e-19 1.1624005e-19 0.0000000e+00 
-9.8125448e-19 3.0880410e-19 0.0000000e+00 
-1.8355291e-18 1.4011094e-20 0.0000000e+00 
0.0000000e+00 0.0000000e+00 0.0000000e+00 
0.0000000e+00 0.0000000e+00 0.0000000e+00 
0.0000000e+00 0.0000000e+00 0.0000000e+00 
0.0000000e+00 0.0000000e+00 0.0000000e+00 
0.0000000e+00 0.0000000e+00 0.0000000e+00 
TOTAL_DISPLACEMENT 3 101  float
0.0000000e+00 0.0000000e+00 0.0000000e+00 
0.0000000e+00 0.0000000e+00 0.0000000e+00 
0.0000000e+00 0.0000000e+00 0.0000000e+00 
6.1284472e-18 3.0050911e-18 0.0000000e+00 
0.0000000e+00 0.0000000e+00 0.0000000e+00 
0.0000000e+00 0.0000000e+00 0.0000000e+00 
1.4622778e-17 4.7096128e-18 0.0000000e+00 
1.5257176e-17 8.0220166e-18 0.0000000e+00 
0.0000000e+00 0.0000000e+00 0.0000000e+00 
0.0000000e+00 0.0000000e+00 0.0000000e+00 
1.0922530e-17 1.3938096e-18 0.0000000e+00 
3.0749632e-17 1.2850422e-17 0.0000000e+00 
2.0998658e-17 9.8454064e-18 0.0000000e+00 
2.7861306e-17 9.4454307e-18 0.0000000e+00 
0.0000000e+00 0.0000000e+00 0.0000000e+00 
0.0000000e+00 0.0000000e+00 0.0000000e+00 
9.3718364e-18 -1.1827005e-18 0.0000000e+00 
4.9280403e-17 2.1529301e-17 0.0000000e+00 
1.9205248e-17 2.6767062e-18 0.0000000e+00 
4.4428053e-17 1.3326064e-17 0.0000000e+00 
3.1883008e-17 2.1933013e-17 0.0000000e+00 
3.2413999e-17 9.3880409e-18 0.0000000e+00 
0.0000000e+00 0.0000000e+00 0.0000000e+00 
6.9512864e-17 3.3190387e-17 0.0000000e+00 
7.4187017e-17 4.0582798e-17 0.0000000e+00 
4.2081417e-17 3.0767936e-17 0.0000000e+00 
4.6522659e-17 1.8616026e-17 0.0000000e+00 
0.0000000e+00 0.0000000e+00 0.0000000e+00 
9.8423104e-17 5.9912626e-17 0.0000000e+00 
6.9753587e-17 4.0414652e-17 0.0000000e+00 
1.0798364e-16 6.9216422e-17 0.0000000e+00 
5.6105431e-17 4.5828708e-17 0.0000000e+00 
0.0000000e+00 0.0000000e+00 0.0000000e+00 
1.0443458e-16 8.6846301e-17 0.0000000e+00 
1.3348108e-16 1.0998199e-16 0.0000000e+00 
1.2458622e-16 1.0293473e-16 0.0000000e+00 
4.8020227e-17 2.3393956e-17 0.0000000e+00 
0.0000000e+00 0.0000000e+00 0.0000000e+00 
1.7766640e-16 1.3679075e-16 0.0000000e+00 
1.6213997e-16 1.2814331e-16 0.0000000e+00 
1.2712158e-16 8.2343785e-17 0.0000000e+00 
5.2058748e-17 6.3279621e-17 0.0000000e+00 
2.5579336e-16 1.4604256e-16 0.0000000e+00 
0.0000000e+00 0.0000000e+00 0.0000000e+00 
1.8073667e-16 9.8023411e-17 0.0000000e+00 
1.5615332e-16 6.7683802e-17 0.0000000e+00 
1.9624921e-17 -2.6809301e-19 0.0000000e+00 
1.7592201e-16 2.5618877e-16 0.0000000e+00 
0.0000000e+00 0.0000000e+00 0.0000000e+00 
1.2500716e-16 1.3678849e-16 0.0000000e+00 
8.6156009e-17 6.8182076e-17 0.0000000e+00 
-2.6221554e-17 1.4298555e-17 0.0000000e+00 
2.4971587e-16 1.3838485e-16 0.0000000e+00 
1.2062603e-16 1.2846558e-16 0.0000000e+00 
0.0000000e+00 0.0000000e+00 0.0000000e+00 
4.0507107e-17 -6.1863170e-17 0.0000000e+00 
-2.4431239e-17 -6.2067094e-17 0.0000000e+00 
1.9211165e-16 1.2683450e-16 0.0000000e+00 
5.7931038e-17 -9.5688346e-17 0.0000000e+00 
0.0000000e+00 0.0000000e+00 0.0000000e+00 
1.1970128e-17 -1.5887917e-16 0.0000000e+00 
-1.8823578e-17 -6.3054681e-17 0.0000000e+00 
1.3729172e-16 -2.1171679e-16 0.0000000e+00 
3.9179572e-17 -1.7663523e-16 0.0000000e+00 
0.0000000e+00 0.0000000e+00 0.0000000e+00 
-4.1956164e-18 -1.4349594e-16 0.0000000e+00 
1.0295915e-17 -4.0980155e-17 0.0000000e+00 
2.7187643e-17 -1.6474914e-16 0.0000000e+00 
1.3240132e-17 -1.5820095e-16 0.0000000e+00 
0.0000000e+00 0.0000000e+00 0.0000000e+00 
1.2079936e-17 -8.7106281e-17 0.0000000e+00 
1.3727812e-17 -4.0477637e-17 0.0000000e+00 
-8.5612002e-17 2.5323905e-18 0.0000000e+00 
-1.4205373e-17 -9.3792673e-17 0.0000000e+00 
0.0000000e+00 0.0000000e+00 0.0000000e+00 
3.1422299e-17 -8.0830475e-17 0.0000000e+00 
2.1912403e-17 -3.2126553e-17 0.0000000e+00 
-7.9912026e-17 -9.6245819e-17 0.0000000e+00 
-6.0004352e-18 -6.3096126e-17 0.0000000e+00 
0.0000000e+00 0.0000000e+00 0.0000000e+00 
2.1808139e-17 -3.6015814e-17 0.0000000e+00 
-6.0564371e-17 -5.9888161e-17 0.0000000e+00 
1.1830656e-17 -1.0887523e-17 0.0000000e+00 
-8.6995296e-18 -2.1543919e-17 0.0000000e+00 
0.0000000e+00 0.0000000e+00 0.0000000e+00 
5.8546930e-18 -9.8002498e-18 0.0000000e+00 
-3.2415326e-17 -1.0092192e-17 0.0000000e+00 
7.9763107e-18 -4.5081017e-18 0.0000000e+00 
-7.0820938e-18 -3.7798184e-19 0.0000000e+00 
0.0000000e+00 0.0000000e+00 0.0000000e+00 
-1.3121522e-17 2.2449129e-19 0.0000000e+00 
-5.1132113e-19 1.1012809e-18 0.0000000e+00 
0.0000000e+00 0.0000000e+00 0.0000000e+00 
1.0742986e-18 3.4705652e-19 0.0000000e+00 
-2.9467943e-18 9.0850343e-19 0.0000000e+00 
-5.5082639e-18 7.7115050e-20 0.0000000e+00 
0.0000000e+00 0.0000000e+00 0.0000000e+00 
0.0000000e+00 0.0000000e+00 0.0000000e+00 
0.0000000e+00 0.0000000e+00 0.0000000e+00 
0.0000000e+00 0.0000000e+00 0.0000000e+00 
0.0000000e+00 0.0000000e+00 0.0000000e+00 
CELL_DATA 38
FIELD FieldData 0
