# vtk DataFile Version 4.0
vtk output
ASCII
DATASET UNSTRUCTURED_GRID
POINTS 101 float
0.0000000e+00 0.0000000e+00 0.0000000e+00 
0.0000000e+00 2.5000000e-01 0.0000000e+00 
2.5000000e-01 0.0000000e+00 0.0000000e+00 
2.5000000e-01 2.5000000e-01 0.0000000e+00 
0.0000000e+00 5.0000000e-01 0.0000000e+00 
5.0000000e-01 0.0000000e+00 0.0000000e+00 
3.5416666e-01 5.0558227e-01 0.0000000e+00 
6.0416669e-01 2.5558227e-01 0.0000000e+00 
0.0000000e+00 7.5000000e-01 0.0000000e+00 
7.5000000e-01 0.0000000e+00 0.0000000e+00 
2.5000000e-01 7.5000000e-01 0.0000000e+00 
7.0833331e-01 5.1116455e-01 0.0000000e+00 
8.5416669e-01 2.5558227e-01 0.0000000e+00 
6.0416669e-01 7.5558227e-01 0.0000000e+00 
0.0000000e+00 1.0000000e+00 0.0000000e+00 
1.0000000e+00 0.0000000e+00 0.0000000e+00 
2.5000000e-01 1.0000000e+00 0.0000000e+00 
9.7916669e-01 5.3907591e-01 0.0000000e+00 
5.0000000e-01 1.0000000e+00 0.0000000e+00 
8.5416669e-01 7.5558227e-01 0.0000000e+00 
1.1250000e+00 2.8349364e-01 0.0000000e+00 
7.5000000e-01 1.0000000e+00 0.0000000e+00 
1.2500000e+00 0.0000000e+00 0.0000000e+00 
1.1250000e+00 7.8349364e-01 0.0000000e+00 
1.2500000e+00 5.6698728e-01 0.0000000e+00 
1.3750000e+00 2.8349364e-01 0.0000000e+00 
1.0000000e+00 1.0000000e+00 0.0000000e+00 
1.5000000e+00 0.0000000e+00 0.0000000e+00 
1.3750000e+00 7.8349364e-01 0.0000000e+00 
1.2500000e+00 1.0000000e+00 0.0000000e+00 
1.5000000e+00 5.6698728e-01 0.0000000e+00 
1.6250000e+00 2.8349364e-01 0.0000000e+00 
1.7500000e+00 0.0000000e+00 0.0000000e+00 
1.5000000e+00 1.0000000e+00 0.0000000e+00 
1.6250000e+00 7.8349364e-01 0.0000000e+00 
1.7500000e+00 5.6698728e-01 0.0000000e+00 
1.8750000e+00 2.8349364e-01 0.0000000e+00 
2.0000000e+00 0.0000000e+00 0.0000000e+00 
1.7500000e+00 1.0000000e+00 0.0000000e+00 
1.8750000e+00 7.8349364e-01 0.0000000e+00 
2.0000000e+00 5.6698728e-01 0.0000000e+00 
2.1250000e+00 2.8349364e-01 0.0000000e+00 
2.0000000e+00 1.0000000e+00 0.0000000e+00 
2.2500000e+00 0.0000000e+00 0.0000000e+00 
2.1250000e+00 7.8349364e-01 0.0000000e+00 
2.2500000e+00 5.6698728e-01 0.0000000e+00 
2.3750000e+00 2.8349364e-01 0.0000000e+00 
2.2500000e+00 1.0000000e+00 0.0000000e+00 
2.5000000e+00 0.0000000e+00 0.0000000e+00 
2.3750000e+00 7.8349364e-01 0.0000000e+00 
2.5000000e+00 5.6698728e-01 0.0000000e+00 
2.6250000e+00 2.8349364e-01 0.0000000e+00 
2.5000000e+00 1.0000000e+00 0.0000000e+00 
2.6250000e+00 7.8349364e-01 0.0000000e+00 
2.7500000e+00 0.0000000e+00 0.0000000e+00 
2.7500000e+00 5.6698728e-01 0.0000000e+00 
2.8750000e+00 2.8349364e-01 0.0000000e+00 
2.7500000e+00 1.0000000e+00 0.0000000e+00 
2.8750000e+00 7.8349364e-01 0.0000000e+00 
3.0000000e+00 0.0000000e+00 0.0000000e+00 
3.0000000e+00 5.0000000e-01 0.0000000e+00 
3.1250000e+00 2.1650635e-01 0.0000000e+00 
3.0000000e+00 1.0000000e+00 0.0000000e+00 
3.1250000e+00 7.1650636e-01 0.0000000e+00 
3.2500000e+00 0.0000000e+00 0.0000000e+00 
3.2500000e+00 4.3301269e-01 0.0000000e+00 
3.3750000e+00 2.1650635e-01 0.0000000e+00 
3.2500000e+00 1.0000000e+00 0.0000000e+00 
3.3750000e+00 7.1650636e-01 0.0000000e+00 
3.5000000e+00 0.0000000e+00 0.0000000e+00 
3.5000000e+00 4.3301269e-01 0.0000000e+00 
3.6250000e+00 2.1650635e-01 0.0000000e+00 
3.5000000e+00 1.0000000e+00 0.0000000e+00 
3.6250000e+00 7.1650636e-01 0.0000000e+00 
3.7500000e+00 0.0000000e+00 0.0000000e+00 
3.7500000e+00 4.3301269e-01 0.0000000e+00 
3.8750000e+00 2.1650635e-01 0.0000000e+00 
3.7500000e+00 1.0000000e+00 0.0000000e+00 
3.8750000e+00 7.1650636e-01 0.0000000e+00 
4.0000000e+00 0.0000000e+00 0.0000000e+00 
4.0208335e+00 4.6092409e-01 0.0000000e+00 
4.0000000e+00 1.0000000e+00 0.0000000e+00 
4.1458335e+00 2.4441773e-01 0.0000000e+00 
4.1458335e+00 7.4441773e-01 0.0000000e+00 
4.2500000e+00 0.0000000e+00 0.0000000e+00 
4.2916665e+00 4.8883545e-01 0.0000000e+00 
4.2500000e+00 1.0000000e+00 0.0000000e+00 
4.3958335e+00 2.4441773e-01 0.0000000e+00 
4.3958335e+00 7.4441773e-01 0.0000000e+00 
4.5000000e+00 0.0000000e+00 0.0000000e+00 
4.5000000e+00 1.0000000e+00 0.0000000e+00 
4.6458335e+00 4.9441773e-01 0.0000000e+00 
4.7500000e+00 0.0000000e+00 0.0000000e+00 
4.7500000e+00 2.5000000e-01 0.0000000e+00 
4.7500000e+00 7.5000000e-01 0.0000000e+00 
4.7500000e+00 1.0000000e+00 0.0000000e+00 
5.0000000e+00 0.0000000e+00 0.0000000e+00 
5.0000000e+00 2.5000000e-01 0.0000000e+00 
5.0000000e+00 5.0000000e-01 0.0000000e+00 
5.0000000e+00 7.5000000e-01 0.0000000e+00 
5.0000000e+00 1.0000000e+00 0.0000000e+00 

CELLS 38 266
6 0 5 4 2 3 1
6 79 89 85 84 87 82
6 62 52 55 57 53 58
6 85 89 98 87 93 91
6 79 85 75 82 80 76
6 55 52 45 53 49 50
6 75 85 81 80 83 78
6 79 75 69 76 71 74
6 45 52 42 49 47 44
6 55 45 48 50 46 51
6 69 75 65 71 70 66
6 65 75 72 70 73 68
6 69 65 59 66 61 64
6 59 65 55 61 60 56
6 37 48 45 43 46 41
6 100 90 98 95 94 99
6 26 18 11 21 13 19
6 11 18 4 13 10 6
6 26 11 24 19 17 23
6 24 11 15 17 12 20
6 26 24 33 23 28 29
6 33 24 35 28 30 34
6 35 24 27 30 25 31
6 33 35 42 34 39 38
6 42 35 45 39 40 44
6 45 35 37 40 36 41
6 15 27 24 22 25 20
6 96 98 89 97 93 92
6 81 72 75 77 73 78
6 14 4 18 8 10 16
6 5 15 11 9 12 7
6 48 59 55 54 56 51
6 90 81 85 86 83 88
6 27 37 35 32 36 31
6 72 62 65 67 63 68
6 62 55 65 58 60 63
6 90 85 98 88 91 94
6 5 11 4 7 6 3

CELL_TYPES 38
22
22
22
22
22
22
22
22
22
22
22
22
22
22
22
22
22
22
22
22
22
22
22
22
22
22
22
22
22
22
22
22
22
22
22
22
22
22
POINT_DATA 101
FIELD FieldData 2
DISPLACEMENT 3 101  float
0.0000000e+00 0.0000000e+00 0.0000000e+00 
0.0000000e+00 0.0000000e+00 0.0000000e+00 
0.0000000e+00 0.0000000e+00 0.0000000e+00 
2.3339420e-18 1.1531866e-18 0.0000000e+00 
0.0000000e+00 0.0000000e+00 0.0000000e+00 
0.0000000e+00 0.0000000e+00 0.0000000e+00 
5.6844679e-18 1.7209635e-18 0.0000000e+00 
5.9263454e-18 2.7806994e-18 0.0000000e+00 
0.0000000e+00 0.0000000e+00 0.0000000e+00 
0.0000000e+00 0.0000000e+00 0.0000000e+00 
4.4411269e-18 4.6097561e-19 0.0000000e+00 
1.2047613e-17 4.9715077e-18 0.0000000e+00 
8.4271366e-18 4.6252106e-18 0.0000000e+00 
1.1720640e-17 2.8167537e-18 0.0000000e+00 
0.0000000e+00 0.0000000e+00 0.0000000e+00 
0.0000000e+00 0.0000000e+00 0.0000000e+00 
4.0808132e-18 -4.4244216e-19 0.0000000e+00 
1.9483144e-17 9.2468684e-18 0.0000000e+00 
8.5818558e-18 5.0831836e-19 0.0000000e+00 
1.8401506e-17 6.3229045e-18 0.0000000e+00 
1.2816095e-17 8.9959291e-18 0.0000000e+00 
1.3353672e-17 3.3618148e-18 0.0000000e+00 
0.0000000e+00 0.0000000e+00 0.0000000e+00 
2.8043878e-17 1.3022920e-17 0.0000000e+00 
3.0209162e-17 1.7244620e-17 0.0000000e+00 
1.7434954e-17 1.3348256e-17 0.0000000e+00 
1.8889778e-17 7.5276744e-18 0.0000000e+00 
0.0000000e+00 0.0000000e+00 0.0000000e+00 
3.9711777e-17 2.4000523e-17 0.0000000e+00 
2.8735255e-17 1.6213939e-17 0.0000000e+00 
4.3890451e-17 2.8773706e-17 0.0000000e+00 
2.2147815e-17 1.9053146e-17 0.0000000e+00 
0.0000000e+00 0.0000000e+00 0.0000000e+00 
4.2022247e-17 3.5032624e-17 0.0000000e+00 
5.3508057e-17 4.5328958e-17 0.0000000e+00 
5.1112125e-17 4.1686098e-17 0.0000000e+00 
1.9243513e-17 8.8173177e-18 0.0000000e+00 
0.0000000e+00 0.0000000e+00 0.0000000e+00 
7.1451094e-17 5.5772057e-17 0.0000000e+00 
6.5561468e-17 5.0794452e-17 0.0000000e+00 
5.0869421e-17 3.5451770e-17 0.0000000e+00 
2.1325024e-17 2.4674468e-17 0.0000000e+00 
1.0229804e-16 5.7246517e-17 0.0000000e+00 
0.0000000e+00 0.0000000e+00 0.0000000e+00 
7.3281439e-17 3.5141987e-17 0.0000000e+00 
6.3524718e-17 2.9959486e-17 0.0000000e+00 
7.7747640e-18 -7.1202441e-19 0.0000000e+00 
7.0203500e-17 9.5616798e-17 0.0000000e+00 
0.0000000e+00 0.0000000e+00 0.0000000e+00 
5.0088522e-17 5.9542360e-17 0.0000000e+00 
3.5033680e-17 2.8735957e-17 0.0000000e+00 
-1.0649184e-17 4.0177362e-18 0.0000000e+00 
1.0070525e-16 6.3019251e-17 0.0000000e+00 
4.8799342e-17 4.8514040e-17 0.0000000e+00 
0.0000000e+00 0.0000000e+00 0.0000000e+00 
1.6993195e-17 -2.4535979e-17 0.0000000e+00 
-1.0127109e-17 -2.3739847e-17 0.0000000e+00 
7.7401275e-17 4.8638419e-17 0.0000000e+00 
2.3330237e-17 -3.8584918e-17 0.0000000e+00 
0.0000000e+00 0.0000000e+00 0.0000000e+00 
4.9315946e-18 -6.4193662e-17 0.0000000e+00 
-7.6750929e-18 -2.4990011e-17 0.0000000e+00 
5.6568374e-17 -8.7266483e-17 0.0000000e+00 
1.5837726e-17 -7.2750733e-17 0.0000000e+00 
0.0000000e+00 0.0000000e+00 0.0000000e+00 
-1.9122373e-18 -5.7182969e-17 0.0000000e+00 
4.4024757e-18 -1.7560851e-17 0.0000000e+00 
1.1027865e-17 -6.9676381e-17 0.0000000e+00 
5.4879496e-18 -6.1948648e-17 0.0000000e+00 
0.0000000e+00 0.0000000e+00 0.0000000e+00 
4.8682077e-18 -3.4206188e-17 0.0000000e+00 
5.5283528e-18 -1.6502462e-17 0.0000000e+00 
-3.4950082e-17 2.5184515e-18 0.0000000e+00 
-5.7761666e-18 -3.5919799e-17 0.0000000e+00 
0.0000000e+00 0.0000000e+00 0.0000000e+00 
1.2238849e-17 -3.3245484e-17 0.0000000e+00 
8.7470718e-18 -1.3067692e-17 0.0000000e+00 
-3.1622930e-17 -3.9123780e-17 0.0000000e+00 
-2.3378757e-18 -2.4584375e-17 0.0000000e+00 
0.0000000e+00 0.0000000e+00 0.0000000e+00 
8.6382165e-18 -1.4465933e-17 0.0000000e+00 
-2.4668774e-17 -2.4442790e-17 0.0000000e+00 
4.6341247e-18 -4.3236478e-18 0.0000000e+00 
-3.5032522e-18 -8.5813619e-18 0.0000000e+00 
0.0000000e+00 0.0000000e+00 0.0000000e+00 
2.3581412e-18 -3.8971237e-18 0.0000000e+00 
-1.3284116e-17 -4.2881126e-18 0.0000000e+00 
3.1883325e-18 -1.8725123e-18 0.0000000e+00 
-2.8341493e-18 -1.6084363e-19 0.0000000e+00 
0.0000000e+00 0.0000000e+00 0.0000000e+00 
-5.3212231e-18 6.9150962e-20 0.0000000e+00 
-1.7041774e-19 4.2465617e-19 0.0000000e+00 
0.0000000e+00 0.0000000e+00 0.0000000e+00 
5.0446711e-19 1.3948806e-19 0.0000000e+00 
-1.1775054e-18 3.7056492e-19 0.0000000e+00 
-2.2026349e-18 1.6813312e-20 0.0000000e+00 
0.0000000e+00 0.0000000e+00 0.0000000e+00 
0.0000000e+00 0.0000000e+00 0.0000000e+00 
0.0000000e+00 0.0000000e+00 0.0000000e+00 
0.0000000e+00 0.0000000e+00 0.0000000e+00 
0.0000000e+00 0.0000000e+00 0.0000000e+00 
TOTAL_DISPLACEMENT 3 101  float
0.0000000e+00 0.0000000e+00 0.0000000e+00 
0.0000000e+00 0.0000000e+00 0.0000000e+00 
0.0000000e+00 0.0000000e+00 0.0000000e+00 
6.5174375e-18 3.1972888e-18 0.0000000e+00 
0.0000000e+00 0.0000000e+00 0.0000000e+00 
0.0000000e+00 0.0000000e+00 0.0000000e+00 
1.5570189e-17 4.9964397e-18 0.0000000e+00 
1.6244901e-17 8.4854661e-18 0.0000000e+00 
0.0000000e+00 0.0000000e+00 0.0000000e+00 
0.0000000e+00 0.0000000e+00 0.0000000e+00 
1.1662718e-17 1.4706388e-18 0.0000000e+00 
3.2757567e-17 1.3679006e-17 0.0000000e+00 
2.2403181e-17 1.0616275e-17 0.0000000e+00 
2.9814746e-17 9.9148896e-18 0.0000000e+00 
0.0000000e+00 0.0000000e+00 0.0000000e+00 
0.0000000e+00 0.0000000e+00 0.0000000e+00 
1.0051972e-17 -1.2564408e-18 0.0000000e+00 
5.2527593e-17 2.3070446e-17 0.0000000e+00 
2.0635557e-17 2.7614260e-18 0.0000000e+00 
4.7494970e-17 1.4379881e-17 0.0000000e+00 
3.4019024e-17 2.3432334e-17 0.0000000e+00 
3.4639611e-17 9.9483432e-18 0.0000000e+00 
0.0000000e+00 0.0000000e+00 0.0000000e+00 
7.4186845e-17 3.5360873e-17 0.0000000e+00 
7.9221873e-17 4.3456900e-17 0.0000000e+00 
4.4987243e-17 3.2992645e-17 0.0000000e+00 
4.9670955e-17 1.9870639e-17 0.0000000e+00 
0.0000000e+00 0.0000000e+00 0.0000000e+00 
1.0504173e-16 6.3912712e-17 0.0000000e+00 
7.4542797e-17 4.3116975e-17 0.0000000e+00 
1.1529872e-16 7.4012038e-17 0.0000000e+00 
5.9796734e-17 4.9004231e-17 0.0000000e+00 
0.0000000e+00 0.0000000e+00 0.0000000e+00 
1.1143829e-16 9.2685078e-17 0.0000000e+00 
1.4239909e-16 1.1753682e-16 0.0000000e+00 
1.3310491e-16 1.0988241e-16 0.0000000e+00 
5.1227477e-17 2.4863511e-17 0.0000000e+00 
0.0000000e+00 0.0000000e+00 0.0000000e+00 
1.8957492e-16 1.4608609e-16 0.0000000e+00 
1.7306688e-16 1.3660905e-16 0.0000000e+00 
1.3559982e-16 8.8252416e-17 0.0000000e+00 
5.5612914e-17 6.7392032e-17 0.0000000e+00 
2.7284302e-16 1.5558365e-16 0.0000000e+00 
0.0000000e+00 0.0000000e+00 0.0000000e+00 
1.9295025e-16 1.0388041e-16 0.0000000e+00 
1.6674077e-16 7.2677048e-17 0.0000000e+00 
2.0920716e-17 -3.8676373e-19 0.0000000e+00 
1.8762259e-16 2.7212490e-16 0.0000000e+00 
0.0000000e+00 0.0000000e+00 0.0000000e+00 
1.3335525e-16 1.4671221e-16 0.0000000e+00 
9.1994951e-17 7.2971405e-17 0.0000000e+00 
-2.7996418e-17 1.4968179e-17 0.0000000e+00 
2.6650010e-16 1.4888806e-16 0.0000000e+00 
1.2875925e-16 1.3655125e-16 0.0000000e+00 
0.0000000e+00 0.0000000e+00 0.0000000e+00 
4.3339308e-17 -6.5952500e-17 0.0000000e+00 
-2.6119091e-17 -6.6023730e-17 0.0000000e+00 
2.0501187e-16 1.3494091e-16 0.0000000e+00 
6.1819416e-17 -1.0211917e-16 0.0000000e+00 
0.0000000e+00 0.0000000e+00 0.0000000e+00 
1.2792060e-17 -1.6957811e-16 0.0000000e+00 
-2.0102760e-17 -6.7219688e-17 0.0000000e+00 
1.4671978e-16 -2.2626121e-16 0.0000000e+00 
4.1819191e-17 -1.8876037e-16 0.0000000e+00 
0.0000000e+00 0.0000000e+00 0.0000000e+00 
-4.5143225e-18 -1.5302644e-16 0.0000000e+00 
1.1029661e-17 -4.3906965e-17 0.0000000e+00 
2.9025622e-17 -1.7636187e-16 0.0000000e+00 
1.4154791e-17 -1.6852573e-16 0.0000000e+00 
0.0000000e+00 0.0000000e+00 0.0000000e+00 
1.2891304e-17 -9.2807316e-17 0.0000000e+00 
1.4649203e-17 -4.3228045e-17 0.0000000e+00 
-9.1437015e-17 2.9521323e-18 0.0000000e+00 
-1.5168067e-17 -9.9779310e-17 0.0000000e+00 
0.0000000e+00 0.0000000e+00 0.0000000e+00 
3.3462106e-17 -8.6371394e-17 0.0000000e+00 
2.3370249e-17 -3.4304500e-17 0.0000000e+00 
-8.5182517e-17 -1.0276644e-16 0.0000000e+00 
-6.3900811e-18 -6.7193522e-17 0.0000000e+00 
0.0000000e+00 0.0000000e+00 0.0000000e+00 
2.3247842e-17 -3.8426801e-17 0.0000000e+00 
-6.4675836e-17 -6.3961959e-17 0.0000000e+00 
1.2603011e-17 -1.1608131e-17 0.0000000e+00 
-9.2834050e-18 -2.2974146e-17 0.0000000e+00 
0.0000000e+00 0.0000000e+00 0.0000000e+00 
6.2477163e-18 -1.0449771e-17 0.0000000e+00 
-3.4629347e-17 -1.0806878e-17 0.0000000e+00 
8.5076990e-18 -4.8201870e-18 0.0000000e+00 
-7.5544519e-18 -4.0478910e-19 0.0000000e+00 
0.0000000e+00 0.0000000e+00 0.0000000e+00 
-1.4008393e-17 2.3601645e-19 0.0000000e+00 
-5.3972408e-19 1.1720569e-18 0.0000000e+00 
0.0000000e+00 0.0000000e+00 0.0000000e+00 
1.1583766e-18 3.7030454e-19 0.0000000e+00 
-3.1430452e-18 9.7026425e-19 0.0000000e+00 
-5.8753696e-18 7.9917266e-20 0.0000000e+00 
0.0000000e+00 0.0000000e+00 0.0000000e+00 
0.0000000e+00 0.0000000e+00 0.0000000e+00 
0.0000000e+00 0.0000000e+00 0.0000000e+00 
0.0000000e+00 0.0000000e+00 0.0000000e+00 
0.0000000e+00 0.0000000e+00 0.0000000e+00 
CELL_DATA 38
FIELD FieldData 0
