# vtk DataFile Version 4.0
vtk output
ASCII
DATASET UNSTRUCTURED_GRID
POINTS 101 float
0.0000000e+00 0.0000000e+00 0.0000000e+00 
0.0000000e+00 2.5000000e-01 0.0000000e+00 
2.5000000e-01 0.0000000e+00 0.0000000e+00 
2.5000000e-01 2.5000000e-01 0.0000000e+00 
0.0000000e+00 5.0000000e-01 0.0000000e+00 
5.0000000e-01 0.0000000e+00 0.0000000e+00 
3.5416666e-01 5.0558227e-01 0.0000000e+00 
6.0416669e-01 2.5558227e-01 0.0000000e+00 
0.0000000e+00 7.5000000e-01 0.0000000e+00 
7.5000000e-01 0.0000000e+00 0.0000000e+00 
2.5000000e-01 7.5000000e-01 0.0000000e+00 
7.0833331e-01 5.1116455e-01 0.0000000e+00 
8.5416669e-01 2.5558227e-01 0.0000000e+00 
6.0416669e-01 7.5558227e-01 0.0000000e+00 
0.0000000e+00 1.0000000e+00 0.0000000e+00 
1.0000000e+00 0.0000000e+00 0.0000000e+00 
2.5000000e-01 1.0000000e+00 0.0000000e+00 
9.7916669e-01 5.3907591e-01 0.0000000e+00 
5.0000000e-01 1.0000000e+00 0.0000000e+00 
8.5416669e-01 7.5558227e-01 0.0000000e+00 
1.1250000e+00 2.8349364e-01 0.0000000e+00 
7.5000000e-01 1.0000000e+00 0.0000000e+00 
1.2500000e+00 0.0000000e+00 0.0000000e+00 
1.1250000e+00 7.8349364e-01 0.0000000e+00 
1.2500000e+00 5.6698728e-01 0.0000000e+00 
1.3750000e+00 2.8349364e-01 0.0000000e+00 
1.0000000e+00 1.0000000e+00 0.0000000e+00 
1.5000000e+00 0.0000000e+00 0.0000000e+00 
1.3750000e+00 7.8349364e-01 0.0000000e+00 
1.2500000e+00 1.0000000e+00 0.0000000e+00 
1.5000000e+00 5.6698728e-01 0.0000000e+00 
1.6250000e+00 2.8349364e-01 0.0000000e+00 
1.7500000e+00 0.0000000e+00 0.0000000e+00 
1.5000000e+00 1.0000000e+00 0.0000000e+00 
1.6250000e+00 7.8349364e-01 0.0000000e+00 
1.7500000e+00 5.6698728e-01 0.0000000e+00 
1.8750000e+00 2.8349364e-01 0.0000000e+00 
2.0000000e+00 0.0000000e+00 0.0000000e+00 
1.7500000e+00 1.0000000e+00 0.0000000e+00 
1.8750000e+00 7.8349364e-01 0.0000000e+00 
2.0000000e+00 5.6698728e-01 0.0000000e+00 
2.1250000e+00 2.8349364e-01 0.0000000e+00 
2.0000000e+00 1.0000000e+00 0.0000000e+00 
2.2500000e+00 0.0000000e+00 0.0000000e+00 
2.1250000e+00 7.8349364e-01 0.0000000e+00 
2.2500000e+00 5.6698728e-01 0.0000000e+00 
2.3750000e+00 2.8349364e-01 0.0000000e+00 
2.2500000e+00 1.0000000e+00 0.0000000e+00 
2.5000000e+00 0.0000000e+00 0.0000000e+00 
2.3750000e+00 7.8349364e-01 0.0000000e+00 
2.5000000e+00 5.6698728e-01 0.0000000e+00 
2.6250000e+00 2.8349364e-01 0.0000000e+00 
2.5000000e+00 1.0000000e+00 0.0000000e+00 
2.6250000e+00 7.8349364e-01 0.0000000e+00 
2.7500000e+00 0.0000000e+00 0.0000000e+00 
2.7500000e+00 5.6698728e-01 0.0000000e+00 
2.8750000e+00 2.8349364e-01 0.0000000e+00 
2.7500000e+00 1.0000000e+00 0.0000000e+00 
2.8750000e+00 7.8349364e-01 0.0000000e+00 
3.0000000e+00 0.0000000e+00 0.0000000e+00 
3.0000000e+00 5.0000000e-01 0.0000000e+00 
3.1250000e+00 2.1650635e-01 0.0000000e+00 
3.0000000e+00 1.0000000e+00 0.0000000e+00 
3.1250000e+00 7.1650636e-01 0.0000000e+00 
3.2500000e+00 0.0000000e+00 0.0000000e+00 
3.2500000e+00 4.3301269e-01 0.0000000e+00 
3.3750000e+00 2.1650635e-01 0.0000000e+00 
3.2500000e+00 1.0000000e+00 0.0000000e+00 
3.3750000e+00 7.1650636e-01 0.0000000e+00 
3.5000000e+00 0.0000000e+00 0.0000000e+00 
3.5000000e+00 4.3301269e-01 0.0000000e+00 
3.6250000e+00 2.1650635e-01 0.0000000e+00 
3.5000000e+00 1.0000000e+00 0.0000000e+00 
3.6250000e+00 7.1650636e-01 0.0000000e+00 
3.7500000e+00 0.0000000e+00 0.0000000e+00 
3.7500000e+00 4.3301269e-01 0.0000000e+00 
3.8750000e+00 2.1650635e-01 0.0000000e+00 
3.7500000e+00 1.0000000e+00 0.0000000e+00 
3.8750000e+00 7.1650636e-01 0.0000000e+00 
4.0000000e+00 0.0000000e+00 0.0000000e+00 
4.0208335e+00 4.6092409e-01 0.0000000e+00 
4.0000000e+00 1.0000000e+00 0.0000000e+00 
4.1458335e+00 2.4441773e-01 0.0000000e+00 
4.1458335e+00 7.4441773e-01 0.0000000e+00 
4.2500000e+00 0.0000000e+00 0.0000000e+00 
4.2916665e+00 4.8883545e-01 0.0000000e+00 
4.2500000e+00 1.0000000e+00 0.0000000e+00 
4.3958335e+00 2.4441773e-01 0.0000000e+00 
4.3958335e+00 7.4441773e-01 0.0000000e+00 
4.5000000e+00 0.0000000e+00 0.0000000e+00 
4.5000000e+00 1.0000000e+00 0.0000000e+00 
4.6458335e+00 4.9441773e-01 0.0000000e+00 
4.7500000e+00 0.0000000e+00 0.0000000e+00 
4.7500000e+00 2.5000000e-01 0.0000000e+00 
4.7500000e+00 7.5000000e-01 0.0000000e+00 
4.7500000e+00 1.0000000e+00 0.0000000e+00 
5.0000000e+00 0.0000000e+00 0.0000000e+00 
5.0000000e+00 2.5000000e-01 0.0000000e+00 
5.0000000e+00 5.0000000e-01 0.0000000e+00 
5.0000000e+00 7.5000000e-01 0.0000000e+00 
5.0000000e+00 1.0000000e+00 0.0000000e+00 

CELLS 38 266
6 0 5 4 2 3 1
6 79 89 85 84 87 82
6 62 52 55 57 53 58
6 85 89 98 87 93 91
6 79 85 75 82 80 76
6 55 52 45 53 49 50
6 75 85 81 80 83 78
6 79 75 69 76 71 74
6 45 52 42 49 47 44
6 55 45 48 50 46 51
6 69 75 65 71 70 66
6 65 75 72 70 73 68
6 69 65 59 66 61 64
6 59 65 55 61 60 56
6 37 48 45 43 46 41
6 100 90 98 95 94 99
6 26 18 11 21 13 19
6 11 18 4 13 10 6
6 26 11 24 19 17 23
6 24 11 15 17 12 20
6 26 24 33 23 28 29
6 33 24 35 28 30 34
6 35 24 27 30 25 31
6 33 35 42 34 39 38
6 42 35 45 39 40 44
6 45 35 37 40 36 41
6 15 27 24 22 25 20
6 96 98 89 97 93 92
6 81 72 75 77 73 78
6 14 4 18 8 10 16
6 5 15 11 9 12 7
6 48 59 55 54 56 51
6 90 81 85 86 83 88
6 27 37 35 32 36 31
6 72 62 65 67 63 68
6 62 55 65 58 60 63
6 90 85 98 88 91 94
6 5 11 4 7 6 3

CELL_TYPES 38
22
22
22
22
22
22
22
22
22
22
22
22
22
22
22
22
22
22
22
22
22
22
22
22
22
22
22
22
22
22
22
22
22
22
22
22
22
22
POINT_DATA 101
FIELD FieldData 2
DISPLACEMENT 3 101  float
0.0000000e+00 0.0000000e+00 0.0000000e+00 
0.0000000e+00 0.0000000e+00 0.0000000e+00 
0.0000000e+00 0.0000000e+00 0.0000000e+00 
1.1669710e-18 5.7659328e-19 0.0000000e+00 
0.0000000e+00 0.0000000e+00 0.0000000e+00 
0.0000000e+00 0.0000000e+00 0.0000000e+00 
2.8422339e-18 8.6048177e-19 0.0000000e+00 
2.9631727e-18 1.3903497e-18 0.0000000e+00 
0.0000000e+00 0.0000000e+00 0.0000000e+00 
0.0000000e+00 0.0000000e+00 0.0000000e+00 
2.2205635e-18 2.3048780e-19 0.0000000e+00 
6.0238063e-18 2.4857538e-18 0.0000000e+00 
4.2135683e-18 2.3126053e-18 0.0000000e+00 
5.8603199e-18 1.4083768e-18 0.0000000e+00 
0.0000000e+00 0.0000000e+00 0.0000000e+00 
0.0000000e+00 0.0000000e+00 0.0000000e+00 
2.0404066e-18 -2.2122108e-19 0.0000000e+00 
9.7415721e-18 4.6234342e-18 0.0000000e+00 
4.2909279e-18 2.5415918e-19 0.0000000e+00 
9.2007531e-18 3.1614522e-18 0.0000000e+00 
6.4080474e-18 4.4979646e-18 0.0000000e+00 
6.6768361e-18 1.6809074e-18 0.0000000e+00 
0.0000000e+00 0.0000000e+00 0.0000000e+00 
1.4021939e-17 6.5114599e-18 0.0000000e+00 
1.5104581e-17 8.6223098e-18 0.0000000e+00 
8.7174770e-18 6.6741279e-18 0.0000000e+00 
9.4448889e-18 3.7638372e-18 0.0000000e+00 
0.0000000e+00 0.0000000e+00 0.0000000e+00 
1.9855888e-17 1.2000262e-17 0.0000000e+00 
1.4367628e-17 8.1069697e-18 0.0000000e+00 
2.1945226e-17 1.4386853e-17 0.0000000e+00 
1.1073908e-17 9.5265729e-18 0.0000000e+00 
0.0000000e+00 0.0000000e+00 0.0000000e+00 
2.1011124e-17 1.7516312e-17 0.0000000e+00 
2.6754029e-17 2.2664479e-17 0.0000000e+00 
2.5556063e-17 2.0843049e-17 0.0000000e+00 
9.6217566e-18 4.4086588e-18 0.0000000e+00 
0.0000000e+00 0.0000000e+00 0.0000000e+00 
3.5725547e-17 2.7886029e-17 0.0000000e+00 
3.2780734e-17 2.5397226e-17 0.0000000e+00 
2.5434710e-17 1.7725885e-17 0.0000000e+00 
1.0662512e-17 1.2337234e-17 0.0000000e+00 
5.1149018e-17 2.8623258e-17 0.0000000e+00 
0.0000000e+00 0.0000000e+00 0.0000000e+00 
3.6640720e-17 1.7570994e-17 0.0000000e+00 
3.1762359e-17 1.4979743e-17 0.0000000e+00 
3.8873820e-18 -3.5601220e-19 0.0000000e+00 
3.5101750e-17 4.7808399e-17 0.0000000e+00 
0.0000000e+00 0.0000000e+00 0.0000000e+00 
2.5044261e-17 2.9771180e-17 0.0000000e+00 
1.7516840e-17 1.4367978e-17 0.0000000e+00 
-5.3245922e-18 2.0088681e-18 0.0000000e+00 
5.0352625e-17 3.1509626e-17 0.0000000e+00 
2.4399671e-17 2.4257020e-17 0.0000000e+00 
0.0000000e+00 0.0000000e+00 0.0000000e+00 
8.4965974e-18 -1.2267989e-17 0.0000000e+00 
-5.0635543e-18 -1.1869924e-17 0.0000000e+00 
3.8700638e-17 2.4319209e-17 0.0000000e+00 
1.1665119e-17 -1.9292459e-17 0.0000000e+00 
0.0000000e+00 0.0000000e+00 0.0000000e+00 
2.4657973e-18 -3.2096831e-17 0.0000000e+00 
-3.8375465e-18 -1.2495006e-17 0.0000000e+00 
2.8284187e-17 -4.3633241e-17 0.0000000e+00 
7.9188630e-18 -3.6375367e-17 0.0000000e+00 
0.0000000e+00 0.0000000e+00 0.0000000e+00 
-9.5611863e-19 -2.8591485e-17 0.0000000e+00 
2.2012378e-18 -8.7804254e-18 0.0000000e+00 
5.5139326e-18 -3.4838190e-17 0.0000000e+00 
2.7439748e-18 -3.0974324e-17 0.0000000e+00 
0.0000000e+00 0.0000000e+00 0.0000000e+00 
2.4341039e-18 -1.7103094e-17 0.0000000e+00 
2.7641764e-18 -8.2512308e-18 0.0000000e+00 
-1.7475041e-17 1.2592257e-18 0.0000000e+00 
-2.8880833e-18 -1.7959899e-17 0.0000000e+00 
0.0000000e+00 0.0000000e+00 0.0000000e+00 
6.1194247e-18 -1.6622742e-17 0.0000000e+00 
4.3735359e-18 -6.5338459e-18 0.0000000e+00 
-1.5811465e-17 -1.9561890e-17 0.0000000e+00 
-1.1689378e-18 -1.2292188e-17 0.0000000e+00 
0.0000000e+00 0.0000000e+00 0.0000000e+00 
4.3191083e-18 -7.2329665e-18 0.0000000e+00 
-1.2334387e-17 -1.2221395e-17 0.0000000e+00 
2.3170623e-18 -2.1618239e-18 0.0000000e+00 
-1.7516261e-18 -4.2906810e-18 0.0000000e+00 
0.0000000e+00 0.0000000e+00 0.0000000e+00 
1.1790706e-18 -1.9485619e-18 0.0000000e+00 
-6.6420581e-18 -2.1440563e-18 0.0000000e+00 
1.5941663e-18 -9.3625616e-19 0.0000000e+00 
-1.4170746e-18 -8.0421814e-20 0.0000000e+00 
0.0000000e+00 0.0000000e+00 0.0000000e+00 
-2.6606116e-18 3.4575481e-20 0.0000000e+00 
-8.5208870e-20 2.1232809e-19 0.0000000e+00 
0.0000000e+00 0.0000000e+00 0.0000000e+00 
2.5223355e-19 6.9744031e-20 0.0000000e+00 
-5.8875268e-19 1.8528246e-19 0.0000000e+00 
-1.1013175e-18 8.4066560e-21 0.0000000e+00 
0.0000000e+00 0.0000000e+00 0.0000000e+00 
0.0000000e+00 0.0000000e+00 0.0000000e+00 
0.0000000e+00 0.0000000e+00 0.0000000e+00 
0.0000000e+00 0.0000000e+00 0.0000000e+00 
0.0000000e+00 0.0000000e+00 0.0000000e+00 
TOTAL_DISPLACEMENT 3 101  float
0.0000000e+00 0.0000000e+00 0.0000000e+00 
0.0000000e+00 0.0000000e+00 0.0000000e+00 
0.0000000e+00 0.0000000e+00 0.0000000e+00 
5.3504668e-18 2.6206955e-18 0.0000000e+00 
0.0000000e+00 0.0000000e+00 0.0000000e+00 
0.0000000e+00 0.0000000e+00 0.0000000e+00 
1.2727955e-17 4.1359581e-18 0.0000000e+00 
1.3281728e-17 7.0951169e-18 0.0000000e+00 
0.0000000e+00 0.0000000e+00 0.0000000e+00 
0.0000000e+00 0.0000000e+00 0.0000000e+00 
9.4421542e-18 1.2401511e-18 0.0000000e+00 
2.6733761e-17 1.1193253e-17 0.0000000e+00 
1.8189612e-17 8.3036691e-18 0.0000000e+00 
2.3954426e-17 8.5065128e-18 0.0000000e+00 
0.0000000e+00 0.0000000e+00 0.0000000e+00 
0.0000000e+00 0.0000000e+00 0.0000000e+00 
8.0115652e-18 -1.0352197e-18 0.0000000e+00 
4.2786020e-17 1.8447011e-17 0.0000000e+00 
1.6344631e-17 2.5072667e-18 0.0000000e+00 
3.8294217e-17 1.1218429e-17 0.0000000e+00 
2.7610976e-17 1.8934371e-17 0.0000000e+00 
2.7962774e-17 8.2674353e-18 0.0000000e+00 
0.0000000e+00 0.0000000e+00 0.0000000e+00 
6.0164902e-17 2.8849413e-17 0.0000000e+00 
6.4117297e-17 3.4834591e-17 0.0000000e+00 
3.6269766e-17 2.6318516e-17 0.0000000e+00 
4.0226065e-17 1.6106801e-17 0.0000000e+00 
0.0000000e+00 0.0000000e+00 0.0000000e+00 
8.5185845e-17 5.1912452e-17 0.0000000e+00 
6.0175173e-17 3.5010006e-17 0.0000000e+00 
9.3353493e-17 5.9625190e-17 0.0000000e+00 
4.8722827e-17 3.9477658e-17 0.0000000e+00 
0.0000000e+00 0.0000000e+00 0.0000000e+00 
9.0427166e-17 7.5168761e-17 0.0000000e+00 
1.1564505e-16 9.4872342e-17 0.0000000e+00 
1.0754885e-16 8.9039369e-17 0.0000000e+00 
4.1605722e-17 2.0454851e-17 0.0000000e+00 
0.0000000e+00 0.0000000e+00 0.0000000e+00 
1.5384937e-16 1.1820007e-16 0.0000000e+00 
1.4028615e-16 1.1121183e-16 0.0000000e+00 
1.1016511e-16 7.0526531e-17 0.0000000e+00 
4.4950404e-17 5.5054799e-17 0.0000000e+00 
2.2169401e-16 1.2696039e-16 0.0000000e+00 
0.0000000e+00 0.0000000e+00 0.0000000e+00 
1.5630953e-16 8.6309415e-17 0.0000000e+00 
1.3497841e-16 5.7697310e-17 0.0000000e+00 
1.7033333e-17 -3.0751541e-20 0.0000000e+00 
1.5252084e-16 2.2431651e-16 0.0000000e+00 
0.0000000e+00 0.0000000e+00 0.0000000e+00 
1.0831099e-16 1.1694104e-16 0.0000000e+00 
7.4478112e-17 5.8603424e-17 0.0000000e+00 
-2.2671826e-17 1.2959310e-17 0.0000000e+00 
2.1614747e-16 1.1737844e-16 0.0000000e+00 
1.0435958e-16 1.1229424e-16 0.0000000e+00 
0.0000000e+00 0.0000000e+00 0.0000000e+00 
3.4842710e-17 -5.3684511e-17 0.0000000e+00 
-2.1055537e-17 -5.4153807e-17 0.0000000e+00 
1.6631123e-16 1.1062170e-16 0.0000000e+00 
5.0154296e-17 -8.2826706e-17 0.0000000e+00 
0.0000000e+00 0.0000000e+00 0.0000000e+00 
1.0326263e-17 -1.3748128e-16 0.0000000e+00 
-1.6265213e-17 -5.4724681e-17 0.0000000e+00 
1.1843560e-16 -1.8262797e-16 0.0000000e+00 
3.3900330e-17 -1.5238500e-16 0.0000000e+00 
0.0000000e+00 0.0000000e+00 0.0000000e+00 
-3.5582038e-18 -1.2443496e-16 0.0000000e+00 
8.8284234e-18 -3.5126539e-17 0.0000000e+00 
2.3511689e-17 -1.4152368e-16 0.0000000e+00 
1.1410816e-17 -1.3755140e-16 0.0000000e+00 
0.0000000e+00 0.0000000e+00 0.0000000e+00 
1.0457200e-17 -7.5704218e-17 0.0000000e+00 
1.1885027e-17 -3.4976816e-17 0.0000000e+00 
-7.3961971e-17 1.6929066e-18 0.0000000e+00 
-1.2279984e-17 -8.1819406e-17 0.0000000e+00 
0.0000000e+00 0.0000000e+00 0.0000000e+00 
2.7342682e-17 -6.9748650e-17 0.0000000e+00 
1.8996712e-17 -2.7770657e-17 0.0000000e+00 
-6.9371052e-17 -8.3204556e-17 0.0000000e+00 
-5.2211433e-18 -5.4901334e-17 0.0000000e+00 
0.0000000e+00 0.0000000e+00 0.0000000e+00 
1.8928733e-17 -3.1193835e-17 0.0000000e+00 
-5.2341448e-17 -5.1740564e-17 0.0000000e+00 
1.0285948e-17 -9.4463075e-18 0.0000000e+00 
-7.5317789e-18 -1.8683464e-17 0.0000000e+00 
0.0000000e+00 0.0000000e+00 0.0000000e+00 
5.0686460e-18 -8.5012090e-18 0.0000000e+00 
-2.7987289e-17 -8.6628218e-18 0.0000000e+00 
6.9135330e-18 -3.8839310e-18 0.0000000e+00 
-6.1373774e-18 -3.2436730e-19 0.0000000e+00 
0.0000000e+00 0.0000000e+00 0.0000000e+00 
-1.1347781e-17 2.0144097e-19 0.0000000e+00 
-4.5451522e-19 9.5972876e-19 0.0000000e+00 
0.0000000e+00 0.0000000e+00 0.0000000e+00 
9.0614296e-19 3.0056050e-19 0.0000000e+00 
-2.5542926e-18 7.8498179e-19 0.0000000e+00 
-4.7740522e-18 7.1510611e-20 0.0000000e+00 
0.0000000e+00 0.0000000e+00 0.0000000e+00 
0.0000000e+00 0.0000000e+00 0.0000000e+00 
0.0000000e+00 0.0000000e+00 0.0000000e+00 
0.0000000e+00 0.0000000e+00 0.0000000e+00 
0.0000000e+00 0.0000000e+00 0.0000000e+00 
CELL_DATA 38
FIELD FieldData 0
