# vtk DataFile Version 4.0
vtk output
ASCII
DATASET UNSTRUCTURED_GRID
POINTS 101 float
0.0000000e+00 0.0000000e+00 0.0000000e+00 
0.0000000e+00 2.5000000e-01 0.0000000e+00 
2.5000000e-01 0.0000000e+00 0.0000000e+00 
2.5000000e-01 2.5000000e-01 0.0000000e+00 
0.0000000e+00 5.0000000e-01 0.0000000e+00 
5.0000000e-01 0.0000000e+00 0.0000000e+00 
3.5416666e-01 5.0558227e-01 0.0000000e+00 
6.0416669e-01 2.5558227e-01 0.0000000e+00 
0.0000000e+00 7.5000000e-01 0.0000000e+00 
7.5000000e-01 0.0000000e+00 0.0000000e+00 
2.5000000e-01 7.5000000e-01 0.0000000e+00 
7.0833331e-01 5.1116455e-01 0.0000000e+00 
8.5416669e-01 2.5558227e-01 0.0000000e+00 
6.0416669e-01 7.5558227e-01 0.0000000e+00 
0.0000000e+00 1.0000000e+00 0.0000000e+00 
1.0000000e+00 0.0000000e+00 0.0000000e+00 
2.5000000e-01 1.0000000e+00 0.0000000e+00 
9.7916669e-01 5.3907591e-01 0.0000000e+00 
5.0000000e-01 1.0000000e+00 0.0000000e+00 
8.5416669e-01 7.5558227e-01 0.0000000e+00 
1.1250000e+00 2.8349364e-01 0.0000000e+00 
7.5000000e-01 1.0000000e+00 0.0000000e+00 
1.2500000e+00 0.0000000e+00 0.0000000e+00 
1.1250000e+00 7.8349364e-01 0.0000000e+00 
1.2500000e+00 5.6698728e-01 0.0000000e+00 
1.3750000e+00 2.8349364e-01 0.0000000e+00 
1.0000000e+00 1.0000000e+00 0.0000000e+00 
1.5000000e+00 0.0000000e+00 0.0000000e+00 
1.3750000e+00 7.8349364e-01 0.0000000e+00 
1.2500000e+00 1.0000000e+00 0.0000000e+00 
1.5000000e+00 5.6698728e-01 0.0000000e+00 
1.6250000e+00 2.8349364e-01 0.0000000e+00 
1.7500000e+00 0.0000000e+00 0.0000000e+00 
1.5000000e+00 1.0000000e+00 0.0000000e+00 
1.6250000e+00 7.8349364e-01 0.0000000e+00 
1.7500000e+00 5.6698728e-01 0.0000000e+00 
1.8750000e+00 2.8349364e-01 0.0000000e+00 
2.0000000e+00 0.0000000e+00 0.0000000e+00 
1.7500000e+00 1.0000000e+00 0.0000000e+00 
1.8750000e+00 7.8349364e-01 0.0000000e+00 
2.0000000e+00 5.6698728e-01 0.0000000e+00 
2.1250000e+00 2.8349364e-01 0.0000000e+00 
2.0000000e+00 1.0000000e+00 0.0000000e+00 
2.2500000e+00 0.0000000e+00 0.0000000e+00 
2.1250000e+00 7.8349364e-01 0.0000000e+00 
2.2500000e+00 5.6698728e-01 0.0000000e+00 
2.3750000e+00 2.8349364e-01 0.0000000e+00 
2.2500000e+00 1.0000000e+00 0.0000000e+00 
2.5000000e+00 0.0000000e+00 0.0000000e+00 
2.3750000e+00 7.8349364e-01 0.0000000e+00 
2.5000000e+00 5.6698728e-01 0.0000000e+00 
2.6250000e+00 2.8349364e-01 0.0000000e+00 
2.5000000e+00 1.0000000e+00 0.0000000e+00 
2.6250000e+00 7.8349364e-01 0.0000000e+00 
2.7500000e+00 0.0000000e+00 0.0000000e+00 
2.7500000e+00 5.6698728e-01 0.0000000e+00 
2.8750000e+00 2.8349364e-01 0.0000000e+00 
2.7500000e+00 1.0000000e+00 0.0000000e+00 
2.8750000e+00 7.8349364e-01 0.0000000e+00 
3.0000000e+00 0.0000000e+00 0.0000000e+00 
3.0000000e+00 5.0000000e-01 0.0000000e+00 
3.1250000e+00 2.1650635e-01 0.0000000e+00 
3.0000000e+00 1.0000000e+00 0.0000000e+00 
3.1250000e+00 7.1650636e-01 0.0000000e+00 
3.2500000e+00 0.0000000e+00 0.0000000e+00 
3.2500000e+00 4.3301269e-01 0.0000000e+00 
3.3750000e+00 2.1650635e-01 0.0000000e+00 
3.2500000e+00 1.0000000e+00 0.0000000e+00 
3.3750000e+00 7.1650636e-01 0.0000000e+00 
3.5000000e+00 0.0000000e+00 0.0000000e+00 
3.5000000e+00 4.3301269e-01 0.0000000e+00 
3.6250000e+00 2.1650635e-01 0.0000000e+00 
3.5000000e+00 1.0000000e+00 0.0000000e+00 
3.6250000e+00 7.1650636e-01 0.0000000e+00 
3.7500000e+00 0.0000000e+00 0.0000000e+00 
3.7500000e+00 4.3301269e-01 0.0000000e+00 
3.8750000e+00 2.1650635e-01 0.0000000e+00 
3.7500000e+00 1.0000000e+00 0.0000000e+00 
3.8750000e+00 7.1650636e-01 0.0000000e+00 
4.0000000e+00 0.0000000e+00 0.0000000e+00 
4.0208335e+00 4.6092409e-01 0.0000000e+00 
4.0000000e+00 1.0000000e+00 0.0000000e+00 
4.1458335e+00 2.4441773e-01 0.0000000e+00 
4.1458335e+00 7.4441773e-01 0.0000000e+00 
4.2500000e+00 0.0000000e+00 0.0000000e+00 
4.2916665e+00 4.8883545e-01 0.0000000e+00 
4.2500000e+00 1.0000000e+00 0.0000000e+00 
4.3958335e+00 2.4441773e-01 0.0000000e+00 
4.3958335e+00 7.4441773e-01 0.0000000e+00 
4.5000000e+00 0.0000000e+00 0.0000000e+00 
4.5000000e+00 1.0000000e+00 0.0000000e+00 
4.6458335e+00 4.9441773e-01 0.0000000e+00 
4.7500000e+00 0.0000000e+00 0.0000000e+00 
4.7500000e+00 2.5000000e-01 0.0000000e+00 
4.7500000e+00 7.5000000e-01 0.0000000e+00 
4.7500000e+00 1.0000000e+00 0.0000000e+00 
5.0000000e+00 0.0000000e+00 0.0000000e+00 
5.0000000e+00 2.5000000e-01 0.0000000e+00 
5.0000000e+00 5.0000000e-01 0.0000000e+00 
5.0000000e+00 7.5000000e-01 0.0000000e+00 
5.0000000e+00 1.0000000e+00 0.0000000e+00 

CELLS 38 266
6 0 5 4 2 3 1
6 79 89 85 84 87 82
6 62 52 55 57 53 58
6 85 89 98 87 93 91
6 79 85 75 82 80 76
6 55 52 45 53 49 50
6 75 85 81 80 83 78
6 79 75 69 76 71 74
6 45 52 42 49 47 44
6 55 45 48 50 46 51
6 69 75 65 71 70 66
6 65 75 72 70 73 68
6 69 65 59 66 61 64
6 59 65 55 61 60 56
6 37 48 45 43 46 41
6 100 90 98 95 94 99
6 26 18 11 21 13 19
6 11 18 4 13 10 6
6 26 11 24 19 17 23
6 24 11 15 17 12 20
6 26 24 33 23 28 29
6 33 24 35 28 30 34
6 35 24 27 30 25 31
6 33 35 42 34 39 38
6 42 35 45 39 40 44
6 45 35 37 40 36 41
6 15 27 24 22 25 20
6 96 98 89 97 93 92
6 81 72 75 77 73 78
6 14 4 18 8 10 16
6 5 15 11 9 12 7
6 48 59 55 54 56 51
6 90 81 85 86 83 88
6 27 37 35 32 36 31
6 72 62 65 67 63 68
6 62 55 65 58 60 63
6 90 85 98 88 91 94
6 5 11 4 7 6 3

CELL_TYPES 38
22
22
22
22
22
22
22
22
22
22
22
22
22
22
22
22
22
22
22
22
22
22
22
22
22
22
22
22
22
22
22
22
22
22
22
22
22
22
POINT_DATA 101
FIELD FieldData 2
DISPLACEMENT 3 101  float
0.0000000e+00 0.0000000e+00 0.0000000e+00 
0.0000000e+00 0.0000000e+00 0.0000000e+00 
0.0000000e+00 0.0000000e+00 0.0000000e+00 
1.5559613e-18 7.6879102e-19 0.0000000e+00 
0.0000000e+00 0.0000000e+00 0.0000000e+00 
0.0000000e+00 0.0000000e+00 0.0000000e+00 
3.7896453e-18 1.1473090e-18 0.0000000e+00 
3.9508971e-18 1.8537996e-18 0.0000000e+00 
0.0000000e+00 0.0000000e+00 0.0000000e+00 
0.0000000e+00 0.0000000e+00 0.0000000e+00 
2.9607511e-18 3.0731706e-19 0.0000000e+00 
8.0317418e-18 3.3143384e-18 0.0000000e+00 
5.6180912e-18 3.0834737e-18 0.0000000e+00 
7.8137598e-18 1.8778359e-18 0.0000000e+00 
0.0000000e+00 0.0000000e+00 0.0000000e+00 
0.0000000e+00 0.0000000e+00 0.0000000e+00 
2.7205422e-18 -2.9496144e-19 0.0000000e+00 
1.2988762e-17 6.1645788e-18 0.0000000e+00 
5.7212369e-18 3.3887891e-19 0.0000000e+00 
1.2267672e-17 4.2152698e-18 0.0000000e+00 
8.5440635e-18 5.9972861e-18 0.0000000e+00 
8.9024478e-18 2.2412099e-18 0.0000000e+00 
0.0000000e+00 0.0000000e+00 0.0000000e+00 
1.8695918e-17 8.6819463e-18 0.0000000e+00 
2.0139441e-17 1.1496413e-17 0.0000000e+00 
1.1623303e-17 8.8988372e-18 0.0000000e+00 
1.2593185e-17 5.0184494e-18 0.0000000e+00 
0.0000000e+00 0.0000000e+00 0.0000000e+00 
2.6474519e-17 1.6000348e-17 0.0000000e+00 
1.9156838e-17 1.0809293e-17 0.0000000e+00 
2.9260300e-17 1.9182471e-17 0.0000000e+00 
1.4765210e-17 1.2702097e-17 0.0000000e+00 
0.0000000e+00 0.0000000e+00 0.0000000e+00 
2.8014834e-17 2.3355084e-17 0.0000000e+00 
3.5672038e-17 3.0219307e-17 0.0000000e+00 
3.4074749e-17 2.7790734e-17 0.0000000e+00 
1.2829009e-17 5.8782118e-18 0.0000000e+00 
0.0000000e+00 0.0000000e+00 0.0000000e+00 
4.7634062e-17 3.7181368e-17 0.0000000e+00 
4.3707645e-17 3.3862968e-17 0.0000000e+00 
3.3912949e-17 2.3634514e-17 0.0000000e+00 
1.4216682e-17 1.6449646e-17 0.0000000e+00 
6.8198686e-17 3.8164343e-17 0.0000000e+00 
0.0000000e+00 0.0000000e+00 0.0000000e+00 
4.8854290e-17 2.3427992e-17 0.0000000e+00 
4.2349811e-17 1.9972991e-17 0.0000000e+00 
5.1831762e-18 -4.7468292e-19 0.0000000e+00 
4.6802332e-17 6.3744530e-17 0.0000000e+00 
0.0000000e+00 0.0000000e+00 0.0000000e+00 
3.3392348e-17 3.9694905e-17 0.0000000e+00 
2.3355787e-17 1.9157304e-17 0.0000000e+00 
-7.0994563e-18 2.6784909e-18 0.0000000e+00 
6.7136831e-17 4.2012834e-17 0.0000000e+00 
3.2532894e-17 3.2342692e-17 0.0000000e+00 
0.0000000e+00 0.0000000e+00 0.0000000e+00 
1.1328796e-17 -1.6357320e-17 0.0000000e+00 
-6.7514056e-18 -1.5826566e-17 0.0000000e+00 
5.1600850e-17 3.2425612e-17 0.0000000e+00 
1.5553490e-17 -2.5723279e-17 0.0000000e+00 
0.0000000e+00 0.0000000e+00 0.0000000e+00 
3.2877296e-18 -4.2795774e-17 0.0000000e+00 
-5.1167283e-18 -1.6660008e-17 0.0000000e+00 
3.7712249e-17 -5.8177657e-17 0.0000000e+00 
1.0558484e-17 -4.8500488e-17 0.0000000e+00 
0.0000000e+00 0.0000000e+00 0.0000000e+00 
-1.2748249e-18 -3.8121982e-17 0.0000000e+00 
2.9349836e-18 -1.1707234e-17 0.0000000e+00 
7.3519101e-18 -4.6450920e-17 0.0000000e+00 
3.6586331e-18 -4.1299100e-17 0.0000000e+00 
0.0000000e+00 0.0000000e+00 0.0000000e+00 
3.2454719e-18 -2.2804124e-17 0.0000000e+00 
3.6855686e-18 -1.1001641e-17 0.0000000e+00 
-2.3300053e-17 1.6789677e-18 0.0000000e+00 
-3.8507776e-18 -2.3946533e-17 0.0000000e+00 
0.0000000e+00 0.0000000e+00 0.0000000e+00 
8.1592326e-18 -2.2163656e-17 0.0000000e+00 
5.8313814e-18 -8.7117942e-18 0.0000000e+00 
-2.1081952e-17 -2.6082520e-17 0.0000000e+00 
-1.5585837e-18 -1.6389585e-17 0.0000000e+00 
0.0000000e+00 0.0000000e+00 0.0000000e+00 
5.7588112e-18 -9.6439557e-18 0.0000000e+00 
-1.6445849e-17 -1.6295193e-17 0.0000000e+00 
3.0894164e-18 -2.8824318e-18 0.0000000e+00 
-2.3355014e-18 -5.7209077e-18 0.0000000e+00 
0.0000000e+00 0.0000000e+00 0.0000000e+00 
1.5720941e-18 -2.5980825e-18 0.0000000e+00 
-8.8560769e-18 -2.8587418e-18 0.0000000e+00 
2.1255549e-18 -1.2483416e-18 0.0000000e+00 
-1.8894327e-18 -1.0722908e-19 0.0000000e+00 
0.0000000e+00 0.0000000e+00 0.0000000e+00 
-3.5474819e-18 4.6100640e-20 0.0000000e+00 
-1.1361182e-19 2.8310412e-19 0.0000000e+00 
0.0000000e+00 0.0000000e+00 0.0000000e+00 
3.3631142e-19 9.2992039e-20 0.0000000e+00 
-7.8500355e-19 2.4704328e-19 0.0000000e+00 
-1.4684232e-18 1.1208875e-20 0.0000000e+00 
0.0000000e+00 0.0000000e+00 0.0000000e+00 
0.0000000e+00 0.0000000e+00 0.0000000e+00 
0.0000000e+00 0.0000000e+00 0.0000000e+00 
0.0000000e+00 0.0000000e+00 0.0000000e+00 
0.0000000e+00 0.0000000e+00 0.0000000e+00 
TOTAL_DISPLACEMENT 3 101  float
0.0000000e+00 0.0000000e+00 0.0000000e+00 
0.0000000e+00 0.0000000e+00 0.0000000e+00 
0.0000000e+00 0.0000000e+00 0.0000000e+00 
5.7394572e-18 2.8128932e-18 0.0000000e+00 
0.0000000e+00 0.0000000e+00 0.0000000e+00 
0.0000000e+00 0.0000000e+00 0.0000000e+00 
1.3675367e-17 4.4227854e-18 0.0000000e+00 
1.4269453e-17 7.5585663e-18 0.0000000e+00 
0.0000000e+00 0.0000000e+00 0.0000000e+00 
0.0000000e+00 0.0000000e+00 0.0000000e+00 
1.0182343e-17 1.3169803e-18 0.0000000e+00 
2.8741697e-17 1.2021837e-17 0.0000000e+00 
1.9594135e-17 9.0745378e-18 0.0000000e+00 
2.5907866e-17 8.9759717e-18 0.0000000e+00 
0.0000000e+00 0.0000000e+00 0.0000000e+00 
0.0000000e+00 0.0000000e+00 0.0000000e+00 
8.6917012e-18 -1.1089601e-18 0.0000000e+00 
4.6033213e-17 1.9988156e-17 0.0000000e+00 
1.7774940e-17 2.5919866e-18 0.0000000e+00 
4.1361135e-17 1.2272247e-17 0.0000000e+00 
2.9746993e-17 2.0433692e-17 0.0000000e+00 
3.0188387e-17 8.8277377e-18 0.0000000e+00 
0.0000000e+00 0.0000000e+00 0.0000000e+00 
6.4838883e-17 3.1019898e-17 0.0000000e+00 
6.9152154e-17 3.7708696e-17 0.0000000e+00 
3.9175591e-17 2.8543227e-17 0.0000000e+00 
4.3374364e-17 1.7361414e-17 0.0000000e+00 
0.0000000e+00 0.0000000e+00 0.0000000e+00 
9.1804475e-17 5.5912539e-17 0.0000000e+00 
6.4964376e-17 3.7712329e-17 0.0000000e+00 
1.0066857e-16 6.4420806e-17 0.0000000e+00 
5.2414131e-17 4.2653181e-17 0.0000000e+00 
0.0000000e+00 0.0000000e+00 0.0000000e+00 
9.7430878e-17 8.1007531e-17 0.0000000e+00 
1.2456306e-16 1.0242717e-16 0.0000000e+00 
1.1606754e-16 9.5987051e-17 0.0000000e+00 
4.4812973e-17 2.1924404e-17 0.0000000e+00 
0.0000000e+00 0.0000000e+00 0.0000000e+00 
1.6575789e-16 1.2749541e-16 0.0000000e+00 
1.5121306e-16 1.1967756e-16 0.0000000e+00 
1.1864335e-16 7.6435161e-17 0.0000000e+00 
4.8504577e-17 5.9167210e-17 0.0000000e+00 
2.3874370e-16 1.3650148e-16 0.0000000e+00 
0.0000000e+00 0.0000000e+00 0.0000000e+00 
1.6852311e-16 9.2166409e-17 0.0000000e+00 
1.4556585e-16 6.2690556e-17 0.0000000e+00 
1.8329128e-17 -1.4942227e-19 0.0000000e+00 
1.6422142e-16 2.4025264e-16 0.0000000e+00 
0.0000000e+00 0.0000000e+00 0.0000000e+00 
1.1665908e-16 1.2686476e-16 0.0000000e+00 
8.0317060e-17 6.3392753e-17 0.0000000e+00 
-2.4446691e-17 1.3628933e-17 0.0000000e+00 
2.3293168e-16 1.2788165e-16 0.0000000e+00 
1.1249280e-16 1.2037991e-16 0.0000000e+00 
0.0000000e+00 0.0000000e+00 0.0000000e+00 
3.7674910e-17 -5.7773841e-17 0.0000000e+00 
-2.2743387e-17 -5.8110451e-17 0.0000000e+00 
1.7921145e-16 1.1872811e-16 0.0000000e+00 
5.4042667e-17 -8.9257526e-17 0.0000000e+00 
0.0000000e+00 0.0000000e+00 0.0000000e+00 
1.1148195e-17 -1.4818022e-16 0.0000000e+00 
-1.7544397e-17 -5.8889681e-17 0.0000000e+00 
1.2786366e-16 -1.9717237e-16 0.0000000e+00 
3.6539949e-17 -1.6451012e-16 0.0000000e+00 
0.0000000e+00 0.0000000e+00 0.0000000e+00 
-3.8769099e-18 -1.3396545e-16 0.0000000e+00 
9.5621698e-18 -3.8053346e-17 0.0000000e+00 
2.5349666e-17 -1.5313641e-16 0.0000000e+00 
1.2325474e-17 -1.4787618e-16 0.0000000e+00 
0.0000000e+00 0.0000000e+00 0.0000000e+00 
1.1268568e-17 -8.1405253e-17 0.0000000e+00 
1.2806419e-17 -3.7727225e-17 0.0000000e+00 
-7.9786990e-17 2.1126486e-18 0.0000000e+00 
-1.3242679e-17 -8.7806043e-17 0.0000000e+00 
0.0000000e+00 0.0000000e+00 0.0000000e+00 
2.9382491e-17 -7.5289562e-17 0.0000000e+00 
2.0454559e-17 -2.9948603e-17 0.0000000e+00 
-7.4641543e-17 -8.9725188e-17 0.0000000e+00 
-5.6107893e-18 -5.8998730e-17 0.0000000e+00 
0.0000000e+00 0.0000000e+00 0.0000000e+00 
2.0368436e-17 -3.3604824e-17 0.0000000e+00 
-5.6452906e-17 -5.5814363e-17 0.0000000e+00 
1.1058302e-17 -1.0166915e-17 0.0000000e+00 
-8.1156543e-18 -2.0113692e-17 0.0000000e+00 
0.0000000e+00 0.0000000e+00 0.0000000e+00 
5.4616693e-18 -9.1507294e-18 0.0000000e+00 
-3.0201307e-17 -9.3775075e-18 0.0000000e+00 
7.4449216e-18 -4.1960163e-18 0.0000000e+00 
-6.6097356e-18 -3.5117457e-19 0.0000000e+00 
0.0000000e+00 0.0000000e+00 0.0000000e+00 
-1.2234652e-17 2.1296613e-19 0.0000000e+00 
-4.8291817e-19 1.0305048e-18 0.0000000e+00 
0.0000000e+00 0.0000000e+00 0.0000000e+00 
9.9022081e-19 3.2380851e-19 0.0000000e+00 
-2.7505435e-18 8.4674261e-19 0.0000000e+00 
-5.1411583e-18 7.4312827e-20 0.0000000e+00 
0.0000000e+00 0.0000000e+00 0.0000000e+00 
0.0000000e+00 0.0000000e+00 0.0000000e+00 
0.0000000e+00 0.0000000e+00 0.0000000e+00 
0.0000000e+00 0.0000000e+00 0.0000000e+00 
0.0000000e+00 0.0000000e+00 0.0000000e+00 
CELL_DATA 38
FIELD FieldData 0
