# vtk DataFile Version 4.0
vtk output
ASCII
DATASET UNSTRUCTURED_GRID
POINTS 101 float
0.0000000e+00 0.0000000e+00 0.0000000e+00 
0.0000000e+00 2.5000000e-01 0.0000000e+00 
2.5000000e-01 0.0000000e+00 0.0000000e+00 
2.5000000e-01 2.5000000e-01 0.0000000e+00 
0.0000000e+00 5.0000000e-01 0.0000000e+00 
5.0000000e-01 0.0000000e+00 0.0000000e+00 
3.5416666e-01 5.0558227e-01 0.0000000e+00 
6.0416669e-01 2.5558227e-01 0.0000000e+00 
0.0000000e+00 7.5000000e-01 0.0000000e+00 
7.5000000e-01 0.0000000e+00 0.0000000e+00 
2.5000000e-01 7.5000000e-01 0.0000000e+00 
7.0833331e-01 5.1116455e-01 0.0000000e+00 
8.5416669e-01 2.5558227e-01 0.0000000e+00 
6.0416669e-01 7.5558227e-01 0.0000000e+00 
0.0000000e+00 1.0000000e+00 0.0000000e+00 
1.0000000e+00 0.0000000e+00 0.0000000e+00 
2.5000000e-01 1.0000000e+00 0.0000000e+00 
9.7916669e-01 5.3907591e-01 0.0000000e+00 
5.0000000e-01 1.0000000e+00 0.0000000e+00 
8.5416669e-01 7.5558227e-01 0.0000000e+00 
1.1250000e+00 2.8349364e-01 0.0000000e+00 
7.5000000e-01 1.0000000e+00 0.0000000e+00 
1.2500000e+00 0.0000000e+00 0.0000000e+00 
1.1250000e+00 7.8349364e-01 0.0000000e+00 
1.2500000e+00 5.6698728e-01 0.0000000e+00 
1.3750000e+00 2.8349364e-01 0.0000000e+00 
1.0000000e+00 1.0000000e+00 0.0000000e+00 
1.5000000e+00 0.0000000e+00 0.0000000e+00 
1.3750000e+00 7.8349364e-01 0.0000000e+00 
1.2500000e+00 1.0000000e+00 0.0000000e+00 
1.5000000e+00 5.6698728e-01 0.0000000e+00 
1.6250000e+00 2.8349364e-01 0.0000000e+00 
1.7500000e+00 0.0000000e+00 0.0000000e+00 
1.5000000e+00 1.0000000e+00 0.0000000e+00 
1.6250000e+00 7.8349364e-01 0.0000000e+00 
1.7500000e+00 5.6698728e-01 0.0000000e+00 
1.8750000e+00 2.8349364e-01 0.0000000e+00 
2.0000000e+00 0.0000000e+00 0.0000000e+00 
1.7500000e+00 1.0000000e+00 0.0000000e+00 
1.8750000e+00 7.8349364e-01 0.0000000e+00 
2.0000000e+00 5.6698728e-01 0.0000000e+00 
2.1250000e+00 2.8349364e-01 0.0000000e+00 
2.0000000e+00 1.0000000e+00 0.0000000e+00 
2.2500000e+00 0.0000000e+00 0.0000000e+00 
2.1250000e+00 7.8349364e-01 0.0000000e+00 
2.2500000e+00 5.6698728e-01 0.0000000e+00 
2.3750000e+00 2.8349364e-01 0.0000000e+00 
2.2500000e+00 1.0000000e+00 0.0000000e+00 
2.5000000e+00 0.0000000e+00 0.0000000e+00 
2.3750000e+00 7.8349364e-01 0.0000000e+00 
2.5000000e+00 5.6698728e-01 0.0000000e+00 
2.6250000e+00 2.8349364e-01 0.0000000e+00 
2.5000000e+00 1.0000000e+00 0.0000000e+00 
2.6250000e+00 7.8349364e-01 0.0000000e+00 
2.7500000e+00 0.0000000e+00 0.0000000e+00 
2.7500000e+00 5.6698728e-01 0.0000000e+00 
2.8750000e+00 2.8349364e-01 0.0000000e+00 
2.7500000e+00 1.0000000e+00 0.0000000e+00 
2.8750000e+00 7.8349364e-01 0.0000000e+00 
3.0000000e+00 0.0000000e+00 0.0000000e+00 
3.0000000e+00 5.0000000e-01 0.0000000e+00 
3.1250000e+00 2.1650635e-01 0.0000000e+00 
3.0000000e+00 1.0000000e+00 0.0000000e+00 
3.1250000e+00 7.1650636e-01 0.0000000e+00 
3.2500000e+00 0.0000000e+00 0.0000000e+00 
3.2500000e+00 4.3301269e-01 0.0000000e+00 
3.3750000e+00 2.1650635e-01 0.0000000e+00 
3.2500000e+00 1.0000000e+00 0.0000000e+00 
3.3750000e+00 7.1650636e-01 0.0000000e+00 
3.5000000e+00 0.0000000e+00 0.0000000e+00 
3.5000000e+00 4.3301269e-01 0.0000000e+00 
3.6250000e+00 2.1650635e-01 0.0000000e+00 
3.5000000e+00 1.0000000e+00 0.0000000e+00 
3.6250000e+00 7.1650636e-01 0.0000000e+00 
3.7500000e+00 0.0000000e+00 0.0000000e+00 
3.7500000e+00 4.3301269e-01 0.0000000e+00 
3.8750000e+00 2.1650635e-01 0.0000000e+00 
3.7500000e+00 1.0000000e+00 0.0000000e+00 
3.8750000e+00 7.1650636e-01 0.0000000e+00 
4.0000000e+00 0.0000000e+00 0.0000000e+00 
4.0208335e+00 4.6092409e-01 0.0000000e+00 
4.0000000e+00 1.0000000e+00 0.0000000e+00 
4.1458335e+00 2.4441773e-01 0.0000000e+00 
4.1458335e+00 7.4441773e-01 0.0000000e+00 
4.2500000e+00 0.0000000e+00 0.0000000e+00 
4.2916665e+00 4.8883545e-01 0.0000000e+00 
4.2500000e+00 1.0000000e+00 0.0000000e+00 
4.3958335e+00 2.4441773e-01 0.0000000e+00 
4.3958335e+00 7.4441773e-01 0.0000000e+00 
4.5000000e+00 0.0000000e+00 0.0000000e+00 
4.5000000e+00 1.0000000e+00 0.0000000e+00 
4.6458335e+00 4.9441773e-01 0.0000000e+00 
4.7500000e+00 0.0000000e+00 0.0000000e+00 
4.7500000e+00 2.5000000e-01 0.0000000e+00 
4.7500000e+00 7.5000000e-01 0.0000000e+00 
4.7500000e+00 1.0000000e+00 0.0000000e+00 
5.0000000e+00 0.0000000e+00 0.0000000e+00 
5.0000000e+00 2.5000000e-01 0.0000000e+00 
5.0000000e+00 5.0000000e-01 0.0000000e+00 
5.0000000e+00 7.5000000e-01 0.0000000e+00 
5.0000000e+00 1.0000000e+00 0.0000000e+00 

CELLS 38 266
6 0 5 4 2 3 1
6 79 89 85 84 87 82
6 62 52 55 57 53 58
6 85 89 98 87 93 91
6 79 85 75 82 80 76
6 55 52 45 53 49 50
6 75 85 81 80 83 78
6 79 75 69 76 71 74
6 45 52 42 49 47 44
6 55 45 48 50 46 51
6 69 75 65 71 70 66
6 65 75 72 70 73 68
6 69 65 59 66 61 64
6 59 65 55 61 60 56
6 37 48 45 43 46 41
6 100 90 98 95 94 99
6 26 18 11 21 13 19
6 11 18 4 13 10 6
6 26 11 24 19 17 23
6 24 11 15 17 12 20
6 26 24 33 23 28 29
6 33 24 35 28 30 34
6 35 24 27 30 25 31
6 33 35 42 34 39 38
6 42 35 45 39 40 44
6 45 35 37 40 36 41
6 15 27 24 22 25 20
6 96 98 89 97 93 92
6 81 72 75 77 73 78
6 14 4 18 8 10 16
6 5 15 11 9 12 7
6 48 59 55 54 56 51
6 90 81 85 86 83 88
6 27 37 35 32 36 31
6 72 62 65 67 63 68
6 62 55 65 58 60 63
6 90 85 98 88 91 94
6 5 11 4 7 6 3

CELL_TYPES 38
22
22
22
22
22
22
22
22
22
22
22
22
22
22
22
22
22
22
22
22
22
22
22
22
22
22
22
22
22
22
22
22
22
22
22
22
22
22
POINT_DATA 101
FIELD FieldData 2
DISPLACEMENT 3 101  float
0.0000000e+00 0.0000000e+00 0.0000000e+00 
0.0000000e+00 0.0000000e+00 0.0000000e+00 
0.0000000e+00 0.0000000e+00 0.0000000e+00 
-5.3229873e-05 -1.7388038e-05 0.0000000e+00 
0.0000000e+00 0.0000000e+00 0.0000000e+00 
0.0000000e+00 0.0000000e+00 0.0000000e+00 
-7.7385979e-05 -3.0860254e-05 0.0000000e+00 
-1.4868495e-04 -1.0922989e-04 0.0000000e+00 
0.0000000e+00 0.0000000e+00 0.0000000e+00 
0.0000000e+00 0.0000000e+00 0.0000000e+00 
9.8290820e-06 2.0124201e-06 0.0000000e+00 
-1.9771070e-04 -2.5113748e-04 0.0000000e+00 
-2.0893879e-04 -2.5163518e-04 0.0000000e+00 
1.0521937e-05 -1.4702239e-04 0.0000000e+00 
0.0000000e+00 0.0000000e+00 0.0000000e+00 
0.0000000e+00 0.0000000e+00 0.0000000e+00 
7.8434896e-05 -1.1334429e-05 0.0000000e+00 
-2.6937289e-04 -6.9736002e-04 0.0000000e+00 
1.8479038e-04 -8.5001491e-05 0.0000000e+00 
-2.2390834e-05 -4.6954639e-04 0.0000000e+00 
-2.2105890e-04 -5.3181255e-04 0.0000000e+00 
3.9284190e-04 -3.2527503e-04 0.0000000e+00 
0.0000000e+00 0.0000000e+00 0.0000000e+00 
-1.5165302e-04 -1.4624727e-03 0.0000000e+00 
-2.0436637e-04 -1.4178300e-03 0.0000000e+00 
-9.0816837e-05 -7.1028533e-04 0.0000000e+00 
6.5770379e-04 -7.9385232e-04 0.0000000e+00 
0.0000000e+00 0.0000000e+00 0.0000000e+00 
-1.6936111e-04 -2.7681477e-03 0.0000000e+00 
5.5785949e-04 -2.7641004e-03 0.0000000e+00 
4.1247265e-05 -1.6919022e-03 0.0000000e+00 
8.9414265e-05 -6.8524561e-04 0.0000000e+00 
0.0000000e+00 0.0000000e+00 0.0000000e+00 
-1.2809654e-04 -4.7973064e-03 0.0000000e+00 
2.6864588e-04 -2.4294269e-03 0.0000000e+00 
1.8980744e-04 -1.2191350e-03 0.0000000e+00 
1.4902683e-04 -5.2075315e-04 0.0000000e+00 
0.0000000e+00 0.0000000e+00 0.0000000e+00 
-5.0645095e-04 -1.7822844e-03 0.0000000e+00 
8.0552127e-05 -1.1607602e-03 0.0000000e+00 
1.3563794e-04 -8.0975419e-04 0.0000000e+00 
1.2952011e-04 -3.9013405e-04 0.0000000e+00 
-2.9645857e-04 -9.1374136e-04 0.0000000e+00 
0.0000000e+00 0.0000000e+00 0.0000000e+00 
-6.8419016e-05 -8.6981792e-04 0.0000000e+00 
8.6778105e-05 -6.8818516e-04 0.0000000e+00 
1.2037872e-04 -3.1973643e-04 0.0000000e+00 
-1.2622171e-04 -1.1578214e-03 0.0000000e+00 
0.0000000e+00 0.0000000e+00 0.0000000e+00 
-8.7573841e-05 -1.0326224e-03 0.0000000e+00 
1.0734561e-04 -6.0997455e-04 0.0000000e+00 
1.3318978e-04 -2.3935408e-04 0.0000000e+00 
-2.0568699e-04 -1.6449454e-03 0.0000000e+00 
6.5694141e-05 -8.0212601e-04 0.0000000e+00 
0.0000000e+00 0.0000000e+00 0.0000000e+00 
1.2556958e-04 -3.6842257e-04 0.0000000e+00 
1.2135848e-04 -1.4160642e-04 0.0000000e+00 
-2.7684082e-04 -5.5314554e-04 0.0000000e+00 
1.4722723e-05 -3.0985021e-04 0.0000000e+00 
0.0000000e+00 0.0000000e+00 0.0000000e+00 
1.0870341e-04 -1.5306822e-04 0.0000000e+00 
7.8404264e-05 -5.3396532e-05 0.0000000e+00 
-1.8498318e-04 -1.9813106e-04 0.0000000e+00 
2.5633177e-05 -1.0559660e-04 0.0000000e+00 
0.0000000e+00 0.0000000e+00 0.0000000e+00 
7.8097371e-05 -5.3565360e-05 0.0000000e+00 
5.1161645e-05 -2.0620777e-05 0.0000000e+00 
-1.0589174e-04 -6.3481610e-05 0.0000000e+00 
1.2611995e-05 -2.2806886e-05 0.0000000e+00 
0.0000000e+00 0.0000000e+00 0.0000000e+00 
4.5394136e-05 -1.0160215e-05 0.0000000e+00 
2.9206216e-05 -4.7472458e-06 0.0000000e+00 
-4.4758661e-05 -5.1697202e-06 0.0000000e+00 
7.3657056e-06 5.3869221e-06 0.0000000e+00 
0.0000000e+00 0.0000000e+00 0.0000000e+00 
2.3872717e-05 3.4662085e-06 0.0000000e+00 
1.5219343e-05 7.8762571e-07 0.0000000e+00 
-1.7664584e-05 9.2389801e-06 0.0000000e+00 
5.4444135e-06 1.1439256e-05 0.0000000e+00 
0.0000000e+00 0.0000000e+00 0.0000000e+00 
1.1558637e-05 6.6415359e-06 0.0000000e+00 
-1.1193456e-06 1.1577797e-05 0.0000000e+00 
7.4019208e-06 2.2183656e-06 0.0000000e+00 
3.8188168e-06 9.3869130e-06 0.0000000e+00 
0.0000000e+00 0.0000000e+00 0.0000000e+00 
4.8724205e-06 5.1602633e-06 0.0000000e+00 
3.1315567e-06 8.2368369e-06 0.0000000e+00 
3.2842795e-06 1.7065147e-06 0.0000000e+00 
3.0508986e-06 5.8109999e-06 0.0000000e+00 
0.0000000e+00 0.0000000e+00 0.0000000e+00 
4.2521324e-06 4.9803439e-06 0.0000000e+00 
1.6786161e-06 1.9274162e-06 0.0000000e+00 
0.0000000e+00 0.0000000e+00 0.0000000e+00 
7.9012801e-07 4.7209642e-07 0.0000000e+00 
1.3721336e-06 1.6649503e-06 0.0000000e+00 
2.5198656e-06 2.0157202e-06 0.0000000e+00 
0.0000000e+00 0.0000000e+00 0.0000000e+00 
0.0000000e+00 0.0000000e+00 0.0000000e+00 
0.0000000e+00 0.0000000e+00 0.0000000e+00 
0.0000000e+00 0.0000000e+00 0.0000000e+00 
0.0000000e+00 0.0000000e+00 0.0000000e+00 
TOTAL_DISPLACEMENT 3 101  float
0.0000000e+00 0.0000000e+00 0.0000000e+00 
0.0000000e+00 0.0000000e+00 0.0000000e+00 
0.0000000e+00 0.0000000e+00 0.0000000e+00 
-5.3229873e-05 -1.7388038e-05 0.0000000e+00 
0.0000000e+00 0.0000000e+00 0.0000000e+00 
0.0000000e+00 0.0000000e+00 0.0000000e+00 
-7.7385979e-05 -3.0860254e-05 0.0000000e+00 
-1.4868495e-04 -1.0922989e-04 0.0000000e+00 
0.0000000e+00 0.0000000e+00 0.0000000e+00 
0.0000000e+00 0.0000000e+00 0.0000000e+00 
9.8290820e-06 2.0124201e-06 0.0000000e+00 
-1.9771070e-04 -2.5113748e-04 0.0000000e+00 
-2.0893879e-04 -2.5163518e-04 0.0000000e+00 
1.0521937e-05 -1.4702239e-04 0.0000000e+00 
0.0000000e+00 0.0000000e+00 0.0000000e+00 
0.0000000e+00 0.0000000e+00 0.0000000e+00 
7.8434896e-05 -1.1334429e-05 0.0000000e+00 
-2.6937289e-04 -6.9736002e-04 0.0000000e+00 
1.8479038e-04 -8.5001491e-05 0.0000000e+00 
-2.2390834e-05 -4.6954639e-04 0.0000000e+00 
-2.2105890e-04 -5.3181255e-04 0.0000000e+00 
3.9284190e-04 -3.2527503e-04 0.0000000e+00 
0.0000000e+00 0.0000000e+00 0.0000000e+00 
-1.5165302e-04 -1.4624727e-03 0.0000000e+00 
-2.0436637e-04 -1.4178300e-03 0.0000000e+00 
-9.0816837e-05 -7.1028533e-04 0.0000000e+00 
6.5770379e-04 -7.9385232e-04 0.0000000e+00 
0.0000000e+00 0.0000000e+00 0.0000000e+00 
-1.6936111e-04 -2.7681477e-03 0.0000000e+00 
5.5785949e-04 -2.7641004e-03 0.0000000e+00 
4.1247265e-05 -1.6919022e-03 0.0000000e+00 
8.9414265e-05 -6.8524561e-04 0.0000000e+00 
0.0000000e+00 0.0000000e+00 0.0000000e+00 
-1.2809654e-04 -4.7973064e-03 0.0000000e+00 
2.6864588e-04 -2.4294269e-03 0.0000000e+00 
1.8980744e-04 -1.2191350e-03 0.0000000e+00 
1.4902683e-04 -5.2075315e-04 0.0000000e+00 
0.0000000e+00 0.0000000e+00 0.0000000e+00 
-5.0645095e-04 -1.7822844e-03 0.0000000e+00 
8.0552127e-05 -1.1607602e-03 0.0000000e+00 
1.3563794e-04 -8.0975419e-04 0.0000000e+00 
1.2952011e-04 -3.9013405e-04 0.0000000e+00 
-2.9645857e-04 -9.1374136e-04 0.0000000e+00 
0.0000000e+00 0.0000000e+00 0.0000000e+00 
-6.8419016e-05 -8.6981792e-04 0.0000000e+00 
8.6778105e-05 -6.8818516e-04 0.0000000e+00 
1.2037872e-04 -3.1973643e-04 0.0000000e+00 
-1.2622171e-04 -1.1578214e-03 0.0000000e+00 
0.0000000e+00 0.0000000e+00 0.0000000e+00 
-8.7573841e-05 -1.0326224e-03 0.0000000e+00 
1.0734561e-04 -6.0997455e-04 0.0000000e+00 
1.3318978e-04 -2.3935408e-04 0.0000000e+00 
-2.0568699e-04 -1.6449454e-03 0.0000000e+00 
6.5694141e-05 -8.0212601e-04 0.0000000e+00 
0.0000000e+00 0.0000000e+00 0.0000000e+00 
1.2556958e-04 -3.6842257e-04 0.0000000e+00 
1.2135848e-04 -1.4160642e-04 0.0000000e+00 
-2.7684082e-04 -5.5314554e-04 0.0000000e+00 
1.4722723e-05 -3.0985021e-04 0.0000000e+00 
0.0000000e+00 0.0000000e+00 0.0000000e+00 
1.0870341e-04 -1.5306822e-04 0.0000000e+00 
7.8404264e-05 -5.3396532e-05 0.0000000e+00 
-1.8498318e-04 -1.9813106e-04 0.0000000e+00 
2.5633177e-05 -1.0559660e-04 0.0000000e+00 
0.0000000e+00 0.0000000e+00 0.0000000e+00 
7.8097371e-05 -5.3565360e-05 0.0000000e+00 
5.1161645e-05 -2.0620777e-05 0.0000000e+00 
-1.0589174e-04 -6.3481610e-05 0.0000000e+00 
1.2611995e-05 -2.2806886e-05 0.0000000e+00 
0.0000000e+00 0.0000000e+00 0.0000000e+00 
4.5394136e-05 -1.0160215e-05 0.0000000e+00 
2.9206216e-05 -4.7472458e-06 0.0000000e+00 
-4.4758661e-05 -5.1697202e-06 0.0000000e+00 
7.3657056e-06 5.3869221e-06 0.0000000e+00 
0.0000000e+00 0.0000000e+00 0.0000000e+00 
2.3872717e-05 3.4662085e-06 0.0000000e+00 
1.5219343e-05 7.8762571e-07 0.0000000e+00 
-1.7664584e-05 9.2389801e-06 0.0000000e+00 
5.4444135e-06 1.1439256e-05 0.0000000e+00 
0.0000000e+00 0.0000000e+00 0.0000000e+00 
1.1558637e-05 6.6415359e-06 0.0000000e+00 
-1.1193456e-06 1.1577797e-05 0.0000000e+00 
7.4019208e-06 2.2183656e-06 0.0000000e+00 
3.8188168e-06 9.3869130e-06 0.0000000e+00 
0.0000000e+00 0.0000000e+00 0.0000000e+00 
4.8724205e-06 5.1602633e-06 0.0000000e+00 
3.1315567e-06 8.2368369e-06 0.0000000e+00 
3.2842795e-06 1.7065147e-06 0.0000000e+00 
3.0508986e-06 5.8109999e-06 0.0000000e+00 
0.0000000e+00 0.0000000e+00 0.0000000e+00 
4.2521324e-06 4.9803439e-06 0.0000000e+00 
1.6786161e-06 1.9274162e-06 0.0000000e+00 
0.0000000e+00 0.0000000e+00 0.0000000e+00 
7.9012801e-07 4.7209642e-07 0.0000000e+00 
1.3721336e-06 1.6649503e-06 0.0000000e+00 
2.5198656e-06 2.0157202e-06 0.0000000e+00 
0.0000000e+00 0.0000000e+00 0.0000000e+00 
0.0000000e+00 0.0000000e+00 0.0000000e+00 
0.0000000e+00 0.0000000e+00 0.0000000e+00 
0.0000000e+00 0.0000000e+00 0.0000000e+00 
0.0000000e+00 0.0000000e+00 0.0000000e+00 
CELL_DATA 38
FIELD FieldData 0
