# vtk DataFile Version 4.0
vtk output
ASCII
DATASET UNSTRUCTURED_GRID
POINTS 101 float
0.0000000e+00 0.0000000e+00 0.0000000e+00 
0.0000000e+00 2.5000000e-01 0.0000000e+00 
2.5000000e-01 0.0000000e+00 0.0000000e+00 
2.5000000e-01 2.5000000e-01 0.0000000e+00 
0.0000000e+00 5.0000000e-01 0.0000000e+00 
5.0000000e-01 0.0000000e+00 0.0000000e+00 
3.5416666e-01 5.0558227e-01 0.0000000e+00 
6.0416669e-01 2.5558227e-01 0.0000000e+00 
0.0000000e+00 7.5000000e-01 0.0000000e+00 
7.5000000e-01 0.0000000e+00 0.0000000e+00 
2.5000000e-01 7.5000000e-01 0.0000000e+00 
7.0833331e-01 5.1116455e-01 0.0000000e+00 
8.5416669e-01 2.5558227e-01 0.0000000e+00 
6.0416669e-01 7.5558227e-01 0.0000000e+00 
0.0000000e+00 1.0000000e+00 0.0000000e+00 
1.0000000e+00 0.0000000e+00 0.0000000e+00 
2.5000000e-01 1.0000000e+00 0.0000000e+00 
9.7916669e-01 5.3907591e-01 0.0000000e+00 
5.0000000e-01 1.0000000e+00 0.0000000e+00 
8.5416669e-01 7.5558227e-01 0.0000000e+00 
1.1250000e+00 2.8349364e-01 0.0000000e+00 
7.5000000e-01 1.0000000e+00 0.0000000e+00 
1.2500000e+00 0.0000000e+00 0.0000000e+00 
1.1250000e+00 7.8349364e-01 0.0000000e+00 
1.2500000e+00 5.6698728e-01 0.0000000e+00 
1.3750000e+00 2.8349364e-01 0.0000000e+00 
1.0000000e+00 1.0000000e+00 0.0000000e+00 
1.5000000e+00 0.0000000e+00 0.0000000e+00 
1.3750000e+00 7.8349364e-01 0.0000000e+00 
1.2500000e+00 1.0000000e+00 0.0000000e+00 
1.5000000e+00 5.6698728e-01 0.0000000e+00 
1.6250000e+00 2.8349364e-01 0.0000000e+00 
1.7500000e+00 0.0000000e+00 0.0000000e+00 
1.5000000e+00 1.0000000e+00 0.0000000e+00 
1.6250000e+00 7.8349364e-01 0.0000000e+00 
1.7500000e+00 5.6698728e-01 0.0000000e+00 
1.8750000e+00 2.8349364e-01 0.0000000e+00 
2.0000000e+00 0.0000000e+00 0.0000000e+00 
1.7500000e+00 1.0000000e+00 0.0000000e+00 
1.8750000e+00 7.8349364e-01 0.0000000e+00 
2.0000000e+00 5.6698728e-01 0.0000000e+00 
2.1250000e+00 2.8349364e-01 0.0000000e+00 
2.0000000e+00 1.0000000e+00 0.0000000e+00 
2.2500000e+00 0.0000000e+00 0.0000000e+00 
2.1250000e+00 7.8349364e-01 0.0000000e+00 
2.2500000e+00 5.6698728e-01 0.0000000e+00 
2.3750000e+00 2.8349364e-01 0.0000000e+00 
2.2500000e+00 1.0000000e+00 0.0000000e+00 
2.5000000e+00 0.0000000e+00 0.0000000e+00 
2.3750000e+00 7.8349364e-01 0.0000000e+00 
2.5000000e+00 5.6698728e-01 0.0000000e+00 
2.6250000e+00 2.8349364e-01 0.0000000e+00 
2.5000000e+00 1.0000000e+00 0.0000000e+00 
2.6250000e+00 7.8349364e-01 0.0000000e+00 
2.7500000e+00 0.0000000e+00 0.0000000e+00 
2.7500000e+00 5.6698728e-01 0.0000000e+00 
2.8750000e+00 2.8349364e-01 0.0000000e+00 
2.7500000e+00 1.0000000e+00 0.0000000e+00 
2.8750000e+00 7.8349364e-01 0.0000000e+00 
3.0000000e+00 0.0000000e+00 0.0000000e+00 
3.0000000e+00 5.0000000e-01 0.0000000e+00 
3.1250000e+00 2.1650635e-01 0.0000000e+00 
3.0000000e+00 1.0000000e+00 0.0000000e+00 
3.1250000e+00 7.1650636e-01 0.0000000e+00 
3.2500000e+00 0.0000000e+00 0.0000000e+00 
3.2500000e+00 4.3301269e-01 0.0000000e+00 
3.3750000e+00 2.1650635e-01 0.0000000e+00 
3.2500000e+00 1.0000000e+00 0.0000000e+00 
3.3750000e+00 7.1650636e-01 0.0000000e+00 
3.5000000e+00 0.0000000e+00 0.0000000e+00 
3.5000000e+00 4.3301269e-01 0.0000000e+00 
3.6250000e+00 2.1650635e-01 0.0000000e+00 
3.5000000e+00 1.0000000e+00 0.0000000e+00 
3.6250000e+00 7.1650636e-01 0.0000000e+00 
3.7500000e+00 0.0000000e+00 0.0000000e+00 
3.7500000e+00 4.3301269e-01 0.0000000e+00 
3.8750000e+00 2.1650635e-01 0.0000000e+00 
3.7500000e+00 1.0000000e+00 0.0000000e+00 
3.8750000e+00 7.1650636e-01 0.0000000e+00 
4.0000000e+00 0.0000000e+00 0.0000000e+00 
4.0208335e+00 4.6092409e-01 0.0000000e+00 
4.0000000e+00 1.0000000e+00 0.0000000e+00 
4.1458335e+00 2.4441773e-01 0.0000000e+00 
4.1458335e+00 7.4441773e-01 0.0000000e+00 
4.2500000e+00 0.0000000e+00 0.0000000e+00 
4.2916665e+00 4.8883545e-01 0.0000000e+00 
4.2500000e+00 1.0000000e+00 0.0000000e+00 
4.3958335e+00 2.4441773e-01 0.0000000e+00 
4.3958335e+00 7.4441773e-01 0.0000000e+00 
4.5000000e+00 0.0000000e+00 0.0000000e+00 
4.5000000e+00 1.0000000e+00 0.0000000e+00 
4.6458335e+00 4.9441773e-01 0.0000000e+00 
4.7500000e+00 0.0000000e+00 0.0000000e+00 
4.7500000e+00 2.5000000e-01 0.0000000e+00 
4.7500000e+00 7.5000000e-01 0.0000000e+00 
4.7500000e+00 1.0000000e+00 0.0000000e+00 
5.0000000e+00 0.0000000e+00 0.0000000e+00 
5.0000000e+00 2.5000000e-01 0.0000000e+00 
5.0000000e+00 5.0000000e-01 0.0000000e+00 
5.0000000e+00 7.5000000e-01 0.0000000e+00 
5.0000000e+00 1.0000000e+00 0.0000000e+00 

CELLS 38 266
6 0 5 4 2 3 1
6 79 89 85 84 87 82
6 62 52 55 57 53 58
6 85 89 98 87 93 91
6 79 85 75 82 80 76
6 55 52 45 53 49 50
6 75 85 81 80 83 78
6 79 75 69 76 71 74
6 45 52 42 49 47 44
6 55 45 48 50 46 51
6 69 75 65 71 70 66
6 65 75 72 70 73 68
6 69 65 59 66 61 64
6 59 65 55 61 60 56
6 37 48 45 43 46 41
6 100 90 98 95 94 99
6 26 18 11 21 13 19
6 11 18 4 13 10 6
6 26 11 24 19 17 23
6 24 11 15 17 12 20
6 26 24 33 23 28 29
6 33 24 35 28 30 34
6 35 24 27 30 25 31
6 33 35 42 34 39 38
6 42 35 45 39 40 44
6 45 35 37 40 36 41
6 15 27 24 22 25 20
6 96 98 89 97 93 92
6 81 72 75 77 73 78
6 14 4 18 8 10 16
6 5 15 11 9 12 7
6 48 59 55 54 56 51
6 90 81 85 86 83 88
6 27 37 35 32 36 31
6 72 62 65 67 63 68
6 62 55 65 58 60 63
6 90 85 98 88 91 94
6 5 11 4 7 6 3

CELL_TYPES 38
22
22
22
22
22
22
22
22
22
22
22
22
22
22
22
22
22
22
22
22
22
22
22
22
22
22
22
22
22
22
22
22
22
22
22
22
22
22
POINT_DATA 101
FIELD FieldData 2
DISPLACEMENT 3 101  float
0.0000000e+00 0.0000000e+00 0.0000000e+00 
0.0000000e+00 0.0000000e+00 0.0000000e+00 
0.0000000e+00 0.0000000e+00 0.0000000e+00 
-5.7604825e-07 5.0367794e-07 0.0000000e+00 
0.0000000e+00 0.0000000e+00 0.0000000e+00 
0.0000000e+00 0.0000000e+00 0.0000000e+00 
-1.4705627e-06 2.0340028e-06 0.0000000e+00 
-2.7035439e-06 2.3404127e-06 0.0000000e+00 
0.0000000e+00 0.0000000e+00 0.0000000e+00 
0.0000000e+00 0.0000000e+00 0.0000000e+00 
-1.5728002e-06 1.5842928e-06 0.0000000e+00 
-4.1637277e-06 6.7181140e-06 0.0000000e+00 
-6.5101676e-06 3.9322140e-06 0.0000000e+00 
-3.4796196e-06 6.4339974e-06 0.0000000e+00 
0.0000000e+00 0.0000000e+00 0.0000000e+00 
0.0000000e+00 0.0000000e+00 0.0000000e+00 
-3.0533852e-06 2.0306895e-06 0.0000000e+00 
-7.8904441e-06 1.2061359e-05 0.0000000e+00 
-5.5400410e-06 5.2164428e-06 0.0000000e+00 
-3.9461565e-06 1.1640562e-05 0.0000000e+00 
-1.5615095e-05 6.6195112e-06 0.0000000e+00 
-6.1901201e-06 9.6613194e-06 0.0000000e+00 
0.0000000e+00 0.0000000e+00 0.0000000e+00 
-2.3249474e-06 1.9605073e-05 0.0000000e+00 
-1.3838288e-05 1.9149911e-05 0.0000000e+00 
-3.1878550e-05 5.3999715e-06 0.0000000e+00 
-4.4785211e-06 1.5411722e-05 0.0000000e+00 
0.0000000e+00 0.0000000e+00 0.0000000e+00 
2.5361812e-06 2.3951954e-05 0.0000000e+00 
6.7236929e-06 2.1264676e-05 0.0000000e+00 
-2.7896940e-05 1.6492799e-05 0.0000000e+00 
-6.0843409e-05 -4.6024484e-06 0.0000000e+00 
0.0000000e+00 0.0000000e+00 0.0000000e+00 
2.9428415e-05 1.9700667e-05 0.0000000e+00 
1.1440192e-05 1.7114888e-05 0.0000000e+00 
-5.2998712e-05 -5.3217113e-06 0.0000000e+00 
-1.0887828e-04 -3.9992025e-05 0.0000000e+00 
0.0000000e+00 0.0000000e+00 0.0000000e+00 
8.9371235e-05 -6.0039151e-06 0.0000000e+00 
2.4193232e-05 -2.8762592e-05 0.0000000e+00 
-1.1024675e-04 -8.9707042e-05 0.0000000e+00 
-1.7465155e-04 -1.2784598e-04 0.0000000e+00 
1.8417314e-04 -9.0369118e-05 0.0000000e+00 
0.0000000e+00 0.0000000e+00 0.0000000e+00 
3.3073404e-05 -1.6980847e-04 0.0000000e+00 
-2.0407866e-04 -3.1835065e-04 0.0000000e+00 
-2.3289966e-04 -2.9499037e-04 0.0000000e+00 
3.8604005e-04 -3.2796559e-04 0.0000000e+00 
0.0000000e+00 0.0000000e+00 0.0000000e+00 
1.0333056e-05 -5.1714468e-04 0.0000000e+00 
-2.7416210e-04 -7.7983137e-04 0.0000000e+00 
-2.2527596e-04 -5.3127186e-04 0.0000000e+00 
6.6003139e-04 -7.9094461e-04 0.0000000e+00 
-1.6221753e-04 -1.4680383e-03 0.0000000e+00 
0.0000000e+00 0.0000000e+00 0.0000000e+00 
-2.0873004e-04 -1.4189860e-03 0.0000000e+00 
-9.3438961e-05 -7.0865027e-04 0.0000000e+00 
5.4477842e-04 -2.7632378e-03 0.0000000e+00 
-1.7664474e-04 -2.7606101e-03 0.0000000e+00 
0.0000000e+00 0.0000000e+00 0.0000000e+00 
3.9317874e-05 -1.4447600e-03 0.0000000e+00 
6.0793252e-05 -5.1752914e-04 0.0000000e+00 
-1.4419801e-04 -4.7176327e-03 0.0000000e+00 
2.5761130e-04 -2.1609876e-03 0.0000000e+00 
0.0000000e+00 0.0000000e+00 0.0000000e+00 
1.4686048e-04 -9.2923566e-04 0.0000000e+00 
1.1934937e-04 -3.9615508e-04 0.0000000e+00 
-4.4664668e-04 -1.8450038e-03 0.0000000e+00 
1.3795974e-04 -1.1490780e-03 0.0000000e+00 
0.0000000e+00 0.0000000e+00 0.0000000e+00 
1.5610053e-04 -6.5875496e-04 0.0000000e+00 
1.1620013e-04 -3.0087691e-04 0.0000000e+00 
-3.2704414e-04 -9.1794354e-04 0.0000000e+00 
-1.6031940e-05 -8.3392812e-04 0.0000000e+00 
0.0000000e+00 0.0000000e+00 0.0000000e+00 
1.4250778e-04 -5.3491100e-04 0.0000000e+00 
1.0946197e-04 -2.4534945e-04 0.0000000e+00 
-1.7976896e-04 -1.1573480e-03 0.0000000e+00 
-3.9387429e-05 -9.0800825e-04 0.0000000e+00 
0.0000000e+00 0.0000000e+00 0.0000000e+00 
1.2983197e-04 -4.6181210e-04 0.0000000e+00 
-2.1252083e-04 -1.5962147e-03 0.0000000e+00 
1.1876334e-04 -1.9541338e-04 0.0000000e+00 
8.2597362e-05 -6.9653866e-04 0.0000000e+00 
0.0000000e+00 0.0000000e+00 0.0000000e+00 
1.2099758e-04 -2.7274885e-04 0.0000000e+00 
-2.7756116e-04 -5.4833310e-04 0.0000000e+00 
9.7679818e-05 -1.1170493e-04 0.0000000e+00 
3.5260040e-05 -2.6690518e-04 0.0000000e+00 
0.0000000e+00 0.0000000e+00 0.0000000e+00 
-1.8972767e-04 -1.8194564e-04 0.0000000e+00 
6.9149428e-05 -7.5583594e-05 0.0000000e+00 
0.0000000e+00 0.0000000e+00 0.0000000e+00 
4.3555210e-05 -3.1712734e-05 0.0000000e+00 
-2.1198402e-06 -3.4583751e-05 0.0000000e+00 
-9.1586830e-05 -4.6877150e-05 0.0000000e+00 
0.0000000e+00 0.0000000e+00 0.0000000e+00 
0.0000000e+00 0.0000000e+00 0.0000000e+00 
0.0000000e+00 0.0000000e+00 0.0000000e+00 
0.0000000e+00 0.0000000e+00 0.0000000e+00 
0.0000000e+00 0.0000000e+00 0.0000000e+00 
TOTAL_DISPLACEMENT 3 101  float
0.0000000e+00 0.0000000e+00 0.0000000e+00 
0.0000000e+00 0.0000000e+00 0.0000000e+00 
0.0000000e+00 0.0000000e+00 0.0000000e+00 
-5.7604825e-07 5.0367794e-07 0.0000000e+00 
0.0000000e+00 0.0000000e+00 0.0000000e+00 
0.0000000e+00 0.0000000e+00 0.0000000e+00 
-1.4705627e-06 2.0340028e-06 0.0000000e+00 
-2.7035439e-06 2.3404127e-06 0.0000000e+00 
0.0000000e+00 0.0000000e+00 0.0000000e+00 
0.0000000e+00 0.0000000e+00 0.0000000e+00 
-1.5728002e-06 1.5842928e-06 0.0000000e+00 
-4.1637277e-06 6.7181140e-06 0.0000000e+00 
-6.5101676e-06 3.9322140e-06 0.0000000e+00 
-3.4796196e-06 6.4339974e-06 0.0000000e+00 
0.0000000e+00 0.0000000e+00 0.0000000e+00 
0.0000000e+00 0.0000000e+00 0.0000000e+00 
-3.0533852e-06 2.0306895e-06 0.0000000e+00 
-7.8904441e-06 1.2061359e-05 0.0000000e+00 
-5.5400410e-06 5.2164428e-06 0.0000000e+00 
-3.9461565e-06 1.1640562e-05 0.0000000e+00 
-1.5615095e-05 6.6195112e-06 0.0000000e+00 
-6.1901201e-06 9.6613194e-06 0.0000000e+00 
0.0000000e+00 0.0000000e+00 0.0000000e+00 
-2.3249474e-06 1.9605073e-05 0.0000000e+00 
-1.3838288e-05 1.9149911e-05 0.0000000e+00 
-3.1878550e-05 5.3999715e-06 0.0000000e+00 
-4.4785211e-06 1.5411722e-05 0.0000000e+00 
0.0000000e+00 0.0000000e+00 0.0000000e+00 
2.5361812e-06 2.3951954e-05 0.0000000e+00 
6.7236929e-06 2.1264676e-05 0.0000000e+00 
-2.7896940e-05 1.6492799e-05 0.0000000e+00 
-6.0843409e-05 -4.6024484e-06 0.0000000e+00 
0.0000000e+00 0.0000000e+00 0.0000000e+00 
2.9428415e-05 1.9700667e-05 0.0000000e+00 
1.1440192e-05 1.7114888e-05 0.0000000e+00 
-5.2998712e-05 -5.3217113e-06 0.0000000e+00 
-1.0887828e-04 -3.9992025e-05 0.0000000e+00 
0.0000000e+00 0.0000000e+00 0.0000000e+00 
8.9371235e-05 -6.0039151e-06 0.0000000e+00 
2.4193232e-05 -2.8762592e-05 0.0000000e+00 
-1.1024675e-04 -8.9707042e-05 0.0000000e+00 
-1.7465155e-04 -1.2784598e-04 0.0000000e+00 
1.8417314e-04 -9.0369118e-05 0.0000000e+00 
0.0000000e+00 0.0000000e+00 0.0000000e+00 
3.3073404e-05 -1.6980847e-04 0.0000000e+00 
-2.0407866e-04 -3.1835065e-04 0.0000000e+00 
-2.3289966e-04 -2.9499037e-04 0.0000000e+00 
3.8604005e-04 -3.2796559e-04 0.0000000e+00 
0.0000000e+00 0.0000000e+00 0.0000000e+00 
1.0333056e-05 -5.1714468e-04 0.0000000e+00 
-2.7416210e-04 -7.7983137e-04 0.0000000e+00 
-2.2527596e-04 -5.3127186e-04 0.0000000e+00 
6.6003139e-04 -7.9094461e-04 0.0000000e+00 
-1.6221753e-04 -1.4680383e-03 0.0000000e+00 
0.0000000e+00 0.0000000e+00 0.0000000e+00 
-2.0873004e-04 -1.4189860e-03 0.0000000e+00 
-9.3438961e-05 -7.0865027e-04 0.0000000e+00 
5.4477842e-04 -2.7632378e-03 0.0000000e+00 
-1.7664474e-04 -2.7606101e-03 0.0000000e+00 
0.0000000e+00 0.0000000e+00 0.0000000e+00 
3.9317874e-05 -1.4447600e-03 0.0000000e+00 
6.0793252e-05 -5.1752914e-04 0.0000000e+00 
-1.4419801e-04 -4.7176327e-03 0.0000000e+00 
2.5761130e-04 -2.1609876e-03 0.0000000e+00 
0.0000000e+00 0.0000000e+00 0.0000000e+00 
1.4686048e-04 -9.2923566e-04 0.0000000e+00 
1.1934937e-04 -3.9615508e-04 0.0000000e+00 
-4.4664668e-04 -1.8450038e-03 0.0000000e+00 
1.3795974e-04 -1.1490780e-03 0.0000000e+00 
0.0000000e+00 0.0000000e+00 0.0000000e+00 
1.5610053e-04 -6.5875496e-04 0.0000000e+00 
1.1620013e-04 -3.0087691e-04 0.0000000e+00 
-3.2704414e-04 -9.1794354e-04 0.0000000e+00 
-1.6031940e-05 -8.3392812e-04 0.0000000e+00 
0.0000000e+00 0.0000000e+00 0.0000000e+00 
1.4250778e-04 -5.3491100e-04 0.0000000e+00 
1.0946197e-04 -2.4534945e-04 0.0000000e+00 
-1.7976896e-04 -1.1573480e-03 0.0000000e+00 
-3.9387429e-05 -9.0800825e-04 0.0000000e+00 
0.0000000e+00 0.0000000e+00 0.0000000e+00 
1.2983197e-04 -4.6181210e-04 0.0000000e+00 
-2.1252083e-04 -1.5962147e-03 0.0000000e+00 
1.1876334e-04 -1.9541338e-04 0.0000000e+00 
8.2597362e-05 -6.9653866e-04 0.0000000e+00 
0.0000000e+00 0.0000000e+00 0.0000000e+00 
1.2099758e-04 -2.7274885e-04 0.0000000e+00 
-2.7756116e-04 -5.4833310e-04 0.0000000e+00 
9.7679818e-05 -1.1170493e-04 0.0000000e+00 
3.5260040e-05 -2.6690518e-04 0.0000000e+00 
0.0000000e+00 0.0000000e+00 0.0000000e+00 
-1.8972767e-04 -1.8194564e-04 0.0000000e+00 
6.9149428e-05 -7.5583594e-05 0.0000000e+00 
0.0000000e+00 0.0000000e+00 0.0000000e+00 
4.3555210e-05 -3.1712734e-05 0.0000000e+00 
-2.1198402e-06 -3.4583751e-05 0.0000000e+00 
-9.1586830e-05 -4.6877150e-05 0.0000000e+00 
0.0000000e+00 0.0000000e+00 0.0000000e+00 
0.0000000e+00 0.0000000e+00 0.0000000e+00 
0.0000000e+00 0.0000000e+00 0.0000000e+00 
0.0000000e+00 0.0000000e+00 0.0000000e+00 
0.0000000e+00 0.0000000e+00 0.0000000e+00 
CELL_DATA 38
FIELD FieldData 0
