# vtk DataFile Version 4.0
vtk output
ASCII
DATASET UNSTRUCTURED_GRID
POINTS 101 float
0.0000000e+00 0.0000000e+00 0.0000000e+00 
0.0000000e+00 2.5000000e-01 0.0000000e+00 
2.5000000e-01 0.0000000e+00 0.0000000e+00 
2.5000000e-01 2.5000000e-01 0.0000000e+00 
0.0000000e+00 5.0000000e-01 0.0000000e+00 
5.0000000e-01 0.0000000e+00 0.0000000e+00 
3.5416666e-01 5.0558227e-01 0.0000000e+00 
6.0416669e-01 2.5558227e-01 0.0000000e+00 
0.0000000e+00 7.5000000e-01 0.0000000e+00 
7.5000000e-01 0.0000000e+00 0.0000000e+00 
2.5000000e-01 7.5000000e-01 0.0000000e+00 
7.0833331e-01 5.1116455e-01 0.0000000e+00 
8.5416669e-01 2.5558227e-01 0.0000000e+00 
6.0416669e-01 7.5558227e-01 0.0000000e+00 
0.0000000e+00 1.0000000e+00 0.0000000e+00 
1.0000000e+00 0.0000000e+00 0.0000000e+00 
2.5000000e-01 1.0000000e+00 0.0000000e+00 
9.7916669e-01 5.3907591e-01 0.0000000e+00 
5.0000000e-01 1.0000000e+00 0.0000000e+00 
8.5416669e-01 7.5558227e-01 0.0000000e+00 
1.1250000e+00 2.8349364e-01 0.0000000e+00 
7.5000000e-01 1.0000000e+00 0.0000000e+00 
1.2500000e+00 0.0000000e+00 0.0000000e+00 
1.1250000e+00 7.8349364e-01 0.0000000e+00 
1.2500000e+00 5.6698728e-01 0.0000000e+00 
1.3750000e+00 2.8349364e-01 0.0000000e+00 
1.0000000e+00 1.0000000e+00 0.0000000e+00 
1.5000000e+00 0.0000000e+00 0.0000000e+00 
1.3750000e+00 7.8349364e-01 0.0000000e+00 
1.2500000e+00 1.0000000e+00 0.0000000e+00 
1.5000000e+00 5.6698728e-01 0.0000000e+00 
1.6250000e+00 2.8349364e-01 0.0000000e+00 
1.7500000e+00 0.0000000e+00 0.0000000e+00 
1.5000000e+00 1.0000000e+00 0.0000000e+00 
1.6250000e+00 7.8349364e-01 0.0000000e+00 
1.7500000e+00 5.6698728e-01 0.0000000e+00 
1.8750000e+00 2.8349364e-01 0.0000000e+00 
2.0000000e+00 0.0000000e+00 0.0000000e+00 
1.7500000e+00 1.0000000e+00 0.0000000e+00 
1.8750000e+00 7.8349364e-01 0.0000000e+00 
2.0000000e+00 5.6698728e-01 0.0000000e+00 
2.1250000e+00 2.8349364e-01 0.0000000e+00 
2.0000000e+00 1.0000000e+00 0.0000000e+00 
2.2500000e+00 0.0000000e+00 0.0000000e+00 
2.1250000e+00 7.8349364e-01 0.0000000e+00 
2.2500000e+00 5.6698728e-01 0.0000000e+00 
2.3750000e+00 2.8349364e-01 0.0000000e+00 
2.2500000e+00 1.0000000e+00 0.0000000e+00 
2.5000000e+00 0.0000000e+00 0.0000000e+00 
2.3750000e+00 7.8349364e-01 0.0000000e+00 
2.5000000e+00 5.6698728e-01 0.0000000e+00 
2.6250000e+00 2.8349364e-01 0.0000000e+00 
2.5000000e+00 1.0000000e+00 0.0000000e+00 
2.6250000e+00 7.8349364e-01 0.0000000e+00 
2.7500000e+00 0.0000000e+00 0.0000000e+00 
2.7500000e+00 5.6698728e-01 0.0000000e+00 
2.8750000e+00 2.8349364e-01 0.0000000e+00 
2.7500000e+00 1.0000000e+00 0.0000000e+00 
2.8750000e+00 7.8349364e-01 0.0000000e+00 
3.0000000e+00 0.0000000e+00 0.0000000e+00 
3.0000000e+00 5.0000000e-01 0.0000000e+00 
3.1250000e+00 2.1650635e-01 0.0000000e+00 
3.0000000e+00 1.0000000e+00 0.0000000e+00 
3.1250000e+00 7.1650636e-01 0.0000000e+00 
3.2500000e+00 0.0000000e+00 0.0000000e+00 
3.2500000e+00 4.3301269e-01 0.0000000e+00 
3.3750000e+00 2.1650635e-01 0.0000000e+00 
3.2500000e+00 1.0000000e+00 0.0000000e+00 
3.3750000e+00 7.1650636e-01 0.0000000e+00 
3.5000000e+00 0.0000000e+00 0.0000000e+00 
3.5000000e+00 4.3301269e-01 0.0000000e+00 
3.6250000e+00 2.1650635e-01 0.0000000e+00 
3.5000000e+00 1.0000000e+00 0.0000000e+00 
3.6250000e+00 7.1650636e-01 0.0000000e+00 
3.7500000e+00 0.0000000e+00 0.0000000e+00 
3.7500000e+00 4.3301269e-01 0.0000000e+00 
3.8750000e+00 2.1650635e-01 0.0000000e+00 
3.7500000e+00 1.0000000e+00 0.0000000e+00 
3.8750000e+00 7.1650636e-01 0.0000000e+00 
4.0000000e+00 0.0000000e+00 0.0000000e+00 
4.0208335e+00 4.6092409e-01 0.0000000e+00 
4.0000000e+00 1.0000000e+00 0.0000000e+00 
4.1458335e+00 2.4441773e-01 0.0000000e+00 
4.1458335e+00 7.4441773e-01 0.0000000e+00 
4.2500000e+00 0.0000000e+00 0.0000000e+00 
4.2916665e+00 4.8883545e-01 0.0000000e+00 
4.2500000e+00 1.0000000e+00 0.0000000e+00 
4.3958335e+00 2.4441773e-01 0.0000000e+00 
4.3958335e+00 7.4441773e-01 0.0000000e+00 
4.5000000e+00 0.0000000e+00 0.0000000e+00 
4.5000000e+00 1.0000000e+00 0.0000000e+00 
4.6458335e+00 4.9441773e-01 0.0000000e+00 
4.7500000e+00 0.0000000e+00 0.0000000e+00 
4.7500000e+00 2.5000000e-01 0.0000000e+00 
4.7500000e+00 7.5000000e-01 0.0000000e+00 
4.7500000e+00 1.0000000e+00 0.0000000e+00 
5.0000000e+00 0.0000000e+00 0.0000000e+00 
5.0000000e+00 2.5000000e-01 0.0000000e+00 
5.0000000e+00 5.0000000e-01 0.0000000e+00 
5.0000000e+00 7.5000000e-01 0.0000000e+00 
5.0000000e+00 1.0000000e+00 0.0000000e+00 

CELLS 38 266
6 0 5 4 2 3 1
6 79 89 85 84 87 82
6 62 52 55 57 53 58
6 85 89 98 87 93 91
6 79 85 75 82 80 76
6 55 52 45 53 49 50
6 75 85 81 80 83 78
6 79 75 69 76 71 74
6 45 52 42 49 47 44
6 55 45 48 50 46 51
6 69 75 65 71 70 66
6 65 75 72 70 73 68
6 69 65 59 66 61 64
6 59 65 55 61 60 56
6 37 48 45 43 46 41
6 100 90 98 95 94 99
6 26 18 11 21 13 19
6 11 18 4 13 10 6
6 26 11 24 19 17 23
6 24 11 15 17 12 20
6 26 24 33 23 28 29
6 33 24 35 28 30 34
6 35 24 27 30 25 31
6 33 35 42 34 39 38
6 42 35 45 39 40 44
6 45 35 37 40 36 41
6 15 27 24 22 25 20
6 96 98 89 97 93 92
6 81 72 75 77 73 78
6 14 4 18 8 10 16
6 5 15 11 9 12 7
6 48 59 55 54 56 51
6 90 81 85 86 83 88
6 27 37 35 32 36 31
6 72 62 65 67 63 68
6 62 55 65 58 60 63
6 90 85 98 88 91 94
6 5 11 4 7 6 3

CELL_TYPES 38
22
22
22
22
22
22
22
22
22
22
22
22
22
22
22
22
22
22
22
22
22
22
22
22
22
22
22
22
22
22
22
22
22
22
22
22
22
22
POINT_DATA 101
FIELD FieldData 2
DISPLACEMENT 3 101  float
0.0000000e+00 0.0000000e+00 0.0000000e+00 
0.0000000e+00 0.0000000e+00 0.0000000e+00 
0.0000000e+00 0.0000000e+00 0.0000000e+00 
-4.9817078e-05 -1.5415102e-05 0.0000000e+00 
0.0000000e+00 0.0000000e+00 0.0000000e+00 
0.0000000e+00 0.0000000e+00 0.0000000e+00 
-7.2009803e-05 -2.6282612e-05 0.0000000e+00 
-1.4088534e-04 -9.8586665e-05 0.0000000e+00 
0.0000000e+00 0.0000000e+00 0.0000000e+00 
0.0000000e+00 0.0000000e+00 0.0000000e+00 
8.9370078e-06 3.8278968e-06 0.0000000e+00 
-1.8359367e-04 -2.2588001e-04 0.0000000e+00 
-2.0241714e-04 -2.3082622e-04 0.0000000e+00 
9.0492695e-06 -1.3103036e-04 0.0000000e+00 
0.0000000e+00 0.0000000e+00 0.0000000e+00 
0.0000000e+00 0.0000000e+00 0.0000000e+00 
7.2042370e-05 -8.5550082e-06 0.0000000e+00 
-2.5789990e-04 -6.3426164e-04 0.0000000e+00 
1.7137355e-04 -7.4078751e-05 0.0000000e+00 
-2.1655422e-05 -4.3252358e-04 0.0000000e+00 
-2.2676123e-04 -5.0290197e-04 0.0000000e+00 
3.6960043e-04 -2.9892413e-04 0.0000000e+00 
0.0000000e+00 0.0000000e+00 0.0000000e+00 
-1.2737146e-04 -1.3084952e-03 0.0000000e+00 
-2.2770207e-04 -1.3361258e-03 0.0000000e+00 
-1.1474769e-04 -7.0097146e-04 0.0000000e+00 
6.2030664e-04 -7.6268293e-04 0.0000000e+00 
0.0000000e+00 0.0000000e+00 0.0000000e+00 
-2.3824777e-04 -2.7721007e-03 0.0000000e+00 
6.2076765e-04 -2.3810447e-03 0.0000000e+00 
7.5302382e-06 -1.7269665e-03 0.0000000e+00 
7.5882315e-05 -6.9989229e-04 0.0000000e+00 
0.0000000e+00 0.0000000e+00 0.0000000e+00 
-3.8603539e-05 -5.2613611e-03 0.0000000e+00 
3.0180888e-04 -2.6146865e-03 0.0000000e+00 
1.8700041e-04 -1.2751271e-03 0.0000000e+00 
1.4934590e-04 -5.3661712e-04 0.0000000e+00 
0.0000000e+00 0.0000000e+00 0.0000000e+00 
-5.2297098e-04 -1.9126567e-03 0.0000000e+00 
9.7012620e-05 -1.2304240e-03 0.0000000e+00 
1.4700020e-04 -8.3185267e-04 0.0000000e+00 
1.3247046e-04 -3.9732707e-04 0.0000000e+00 
-3.3655480e-04 -9.6155034e-04 0.0000000e+00 
0.0000000e+00 0.0000000e+00 0.0000000e+00 
-5.6188379e-05 -8.5513946e-04 0.0000000e+00 
8.8294873e-05 -6.8426447e-04 0.0000000e+00 
1.1805665e-04 -3.2604541e-04 0.0000000e+00 
-1.2272614e-04 -1.0548182e-03 0.0000000e+00 
0.0000000e+00 0.0000000e+00 0.0000000e+00 
-1.1028133e-04 -1.0492218e-03 0.0000000e+00 
1.0093116e-04 -6.3144963e-04 0.0000000e+00 
1.3245367e-04 -2.4921552e-04 0.0000000e+00 
-1.8405366e-04 -1.8096106e-03 0.0000000e+00 
7.6228331e-05 -8.7066996e-04 0.0000000e+00 
0.0000000e+00 0.0000000e+00 0.0000000e+00 
1.2599945e-04 -3.9320582e-04 0.0000000e+00 
1.2366984e-04 -1.5079639e-04 0.0000000e+00 
-2.8487164e-04 -6.0237595e-04 0.0000000e+00 
1.9392299e-05 -3.3851550e-04 0.0000000e+00 
0.0000000e+00 0.0000000e+00 0.0000000e+00 
1.1248364e-04 -1.6667951e-04 0.0000000e+00 
8.1237064e-05 -5.7841811e-05 0.0000000e+00 
-1.9567448e-04 -2.1756836e-04 0.0000000e+00 
2.8360964e-05 -1.1753278e-04 0.0000000e+00 
0.0000000e+00 0.0000000e+00 0.0000000e+00 
8.2203791e-05 -5.9827442e-05 0.0000000e+00 
5.3773740e-05 -2.2943303e-05 0.0000000e+00 
-1.1299417e-04 -7.1517912e-05 0.0000000e+00 
1.3780560e-05 -2.7197597e-05 0.0000000e+00 
0.0000000e+00 0.0000000e+00 0.0000000e+00 
4.8096426e-05 -1.2386080e-05 0.0000000e+00 
3.0972999e-05 -5.6213371e-06 0.0000000e+00 
-4.8469203e-05 -7.5994280e-06 0.0000000e+00 
7.8732073e-06 4.2180750e-06 0.0000000e+00 
0.0000000e+00 0.0000000e+00 0.0000000e+00 
2.5485255e-05 2.8374377e-06 0.0000000e+00 
1.6268563e-05 5.3181691e-07 0.0000000e+00 
-1.9555055e-05 8.7270610e-06 0.0000000e+00 
5.7170919e-06 1.1465216e-05 0.0000000e+00 
0.0000000e+00 0.0000000e+00 0.0000000e+00 
1.2370700e-05 6.7211176e-06 0.0000000e+00 
-1.7540857e-06 1.1840870e-05 0.0000000e+00 
7.9595811e-06 2.2283950e-06 0.0000000e+00 
3.9367310e-06 9.7329985e-06 0.0000000e+00 
0.0000000e+00 0.0000000e+00 0.0000000e+00 
5.2183900e-06 5.3716667e-06 0.0000000e+00 
2.9720263e-06 8.5753745e-06 0.0000000e+00 
3.5486817e-06 1.7692159e-06 0.0000000e+00 
3.1498407e-06 6.1105698e-06 0.0000000e+00 
0.0000000e+00 0.0000000e+00 0.0000000e+00 
4.3332388e-06 5.2485557e-06 0.0000000e+00 
1.7922960e-06 2.0466682e-06 0.0000000e+00 
0.0000000e+00 0.0000000e+00 0.0000000e+00 
8.5704568e-07 5.0088613e-07 0.0000000e+00 
1.4182501e-06 1.7781932e-06 0.0000000e+00 
2.5971515e-06 2.1349422e-06 0.0000000e+00 
0.0000000e+00 0.0000000e+00 0.0000000e+00 
0.0000000e+00 0.0000000e+00 0.0000000e+00 
0.0000000e+00 0.0000000e+00 0.0000000e+00 
0.0000000e+00 0.0000000e+00 0.0000000e+00 
0.0000000e+00 0.0000000e+00 0.0000000e+00 
TOTAL_DISPLACEMENT 3 101  float
0.0000000e+00 0.0000000e+00 0.0000000e+00 
0.0000000e+00 0.0000000e+00 0.0000000e+00 
0.0000000e+00 0.0000000e+00 0.0000000e+00 
-4.9817078e-05 -1.5415102e-05 0.0000000e+00 
0.0000000e+00 0.0000000e+00 0.0000000e+00 
0.0000000e+00 0.0000000e+00 0.0000000e+00 
-7.2009803e-05 -2.6282612e-05 0.0000000e+00 
-1.4088534e-04 -9.8586665e-05 0.0000000e+00 
0.0000000e+00 0.0000000e+00 0.0000000e+00 
0.0000000e+00 0.0000000e+00 0.0000000e+00 
8.9370078e-06 3.8278968e-06 0.0000000e+00 
-1.8359367e-04 -2.2588001e-04 0.0000000e+00 
-2.0241714e-04 -2.3082622e-04 0.0000000e+00 
9.0492695e-06 -1.3103036e-04 0.0000000e+00 
0.0000000e+00 0.0000000e+00 0.0000000e+00 
0.0000000e+00 0.0000000e+00 0.0000000e+00 
7.2042370e-05 -8.5550082e-06 0.0000000e+00 
-2.5789990e-04 -6.3426164e-04 0.0000000e+00 
1.7137355e-04 -7.4078751e-05 0.0000000e+00 
-2.1655422e-05 -4.3252358e-04 0.0000000e+00 
-2.2676123e-04 -5.0290197e-04 0.0000000e+00 
3.6960043e-04 -2.9892413e-04 0.0000000e+00 
0.0000000e+00 0.0000000e+00 0.0000000e+00 
-1.2737146e-04 -1.3084952e-03 0.0000000e+00 
-2.2770207e-04 -1.3361258e-03 0.0000000e+00 
-1.1474769e-04 -7.0097146e-04 0.0000000e+00 
6.2030664e-04 -7.6268293e-04 0.0000000e+00 
0.0000000e+00 0.0000000e+00 0.0000000e+00 
-2.3824777e-04 -2.7721007e-03 0.0000000e+00 
6.2076765e-04 -2.3810447e-03 0.0000000e+00 
7.5302382e-06 -1.7269665e-03 0.0000000e+00 
7.5882315e-05 -6.9989229e-04 0.0000000e+00 
0.0000000e+00 0.0000000e+00 0.0000000e+00 
-3.8603539e-05 -5.2613611e-03 0.0000000e+00 
3.0180888e-04 -2.6146865e-03 0.0000000e+00 
1.8700041e-04 -1.2751271e-03 0.0000000e+00 
1.4934590e-04 -5.3661712e-04 0.0000000e+00 
0.0000000e+00 0.0000000e+00 0.0000000e+00 
-5.2297098e-04 -1.9126567e-03 0.0000000e+00 
9.7012620e-05 -1.2304240e-03 0.0000000e+00 
1.4700020e-04 -8.3185267e-04 0.0000000e+00 
1.3247046e-04 -3.9732707e-04 0.0000000e+00 
-3.3655480e-04 -9.6155034e-04 0.0000000e+00 
0.0000000e+00 0.0000000e+00 0.0000000e+00 
-5.6188379e-05 -8.5513946e-04 0.0000000e+00 
8.8294873e-05 -6.8426447e-04 0.0000000e+00 
1.1805665e-04 -3.2604541e-04 0.0000000e+00 
-1.2272614e-04 -1.0548182e-03 0.0000000e+00 
0.0000000e+00 0.0000000e+00 0.0000000e+00 
-1.1028133e-04 -1.0492218e-03 0.0000000e+00 
1.0093116e-04 -6.3144963e-04 0.0000000e+00 
1.3245367e-04 -2.4921552e-04 0.0000000e+00 
-1.8405366e-04 -1.8096106e-03 0.0000000e+00 
7.6228331e-05 -8.7066996e-04 0.0000000e+00 
0.0000000e+00 0.0000000e+00 0.0000000e+00 
1.2599945e-04 -3.9320582e-04 0.0000000e+00 
1.2366984e-04 -1.5079639e-04 0.0000000e+00 
-2.8487164e-04 -6.0237595e-04 0.0000000e+00 
1.9392299e-05 -3.3851550e-04 0.0000000e+00 
0.0000000e+00 0.0000000e+00 0.0000000e+00 
1.1248364e-04 -1.6667951e-04 0.0000000e+00 
8.1237064e-05 -5.7841811e-05 0.0000000e+00 
-1.9567448e-04 -2.1756836e-04 0.0000000e+00 
2.8360964e-05 -1.1753278e-04 0.0000000e+00 
0.0000000e+00 0.0000000e+00 0.0000000e+00 
8.2203791e-05 -5.9827442e-05 0.0000000e+00 
5.3773740e-05 -2.2943303e-05 0.0000000e+00 
-1.1299417e-04 -7.1517912e-05 0.0000000e+00 
1.3780560e-05 -2.7197597e-05 0.0000000e+00 
0.0000000e+00 0.0000000e+00 0.0000000e+00 
4.8096426e-05 -1.2386080e-05 0.0000000e+00 
3.0972999e-05 -5.6213371e-06 0.0000000e+00 
-4.8469203e-05 -7.5994280e-06 0.0000000e+00 
7.8732073e-06 4.2180750e-06 0.0000000e+00 
0.0000000e+00 0.0000000e+00 0.0000000e+00 
2.5485255e-05 2.8374377e-06 0.0000000e+00 
1.6268563e-05 5.3181691e-07 0.0000000e+00 
-1.9555055e-05 8.7270610e-06 0.0000000e+00 
5.7170919e-06 1.1465216e-05 0.0000000e+00 
0.0000000e+00 0.0000000e+00 0.0000000e+00 
1.2370700e-05 6.7211176e-06 0.0000000e+00 
-1.7540857e-06 1.1840870e-05 0.0000000e+00 
7.9595811e-06 2.2283950e-06 0.0000000e+00 
3.9367310e-06 9.7329985e-06 0.0000000e+00 
0.0000000e+00 0.0000000e+00 0.0000000e+00 
5.2183900e-06 5.3716667e-06 0.0000000e+00 
2.9720263e-06 8.5753745e-06 0.0000000e+00 
3.5486817e-06 1.7692159e-06 0.0000000e+00 
3.1498407e-06 6.1105698e-06 0.0000000e+00 
0.0000000e+00 0.0000000e+00 0.0000000e+00 
4.3332388e-06 5.2485557e-06 0.0000000e+00 
1.7922960e-06 2.0466682e-06 0.0000000e+00 
0.0000000e+00 0.0000000e+00 0.0000000e+00 
8.5704568e-07 5.0088613e-07 0.0000000e+00 
1.4182501e-06 1.7781932e-06 0.0000000e+00 
2.5971515e-06 2.1349422e-06 0.0000000e+00 
0.0000000e+00 0.0000000e+00 0.0000000e+00 
0.0000000e+00 0.0000000e+00 0.0000000e+00 
0.0000000e+00 0.0000000e+00 0.0000000e+00 
0.0000000e+00 0.0000000e+00 0.0000000e+00 
0.0000000e+00 0.0000000e+00 0.0000000e+00 
CELL_DATA 38
FIELD FieldData 0
