# vtk DataFile Version 4.0
vtk output
ASCII
DATASET UNSTRUCTURED_GRID
POINTS 101 float
0.0000000e+00 0.0000000e+00 0.0000000e+00 
0.0000000e+00 2.5000000e-01 0.0000000e+00 
2.5000000e-01 0.0000000e+00 0.0000000e+00 
2.5000000e-01 2.5000000e-01 0.0000000e+00 
0.0000000e+00 5.0000000e-01 0.0000000e+00 
5.0000000e-01 0.0000000e+00 0.0000000e+00 
3.5416666e-01 5.0558227e-01 0.0000000e+00 
6.0416669e-01 2.5558227e-01 0.0000000e+00 
0.0000000e+00 7.5000000e-01 0.0000000e+00 
7.5000000e-01 0.0000000e+00 0.0000000e+00 
2.5000000e-01 7.5000000e-01 0.0000000e+00 
7.0833331e-01 5.1116455e-01 0.0000000e+00 
8.5416669e-01 2.5558227e-01 0.0000000e+00 
6.0416669e-01 7.5558227e-01 0.0000000e+00 
0.0000000e+00 1.0000000e+00 0.0000000e+00 
1.0000000e+00 0.0000000e+00 0.0000000e+00 
2.5000000e-01 1.0000000e+00 0.0000000e+00 
9.7916669e-01 5.3907591e-01 0.0000000e+00 
5.0000000e-01 1.0000000e+00 0.0000000e+00 
8.5416669e-01 7.5558227e-01 0.0000000e+00 
1.1250000e+00 2.8349364e-01 0.0000000e+00 
7.5000000e-01 1.0000000e+00 0.0000000e+00 
1.2500000e+00 0.0000000e+00 0.0000000e+00 
1.1250000e+00 7.8349364e-01 0.0000000e+00 
1.2500000e+00 5.6698728e-01 0.0000000e+00 
1.3750000e+00 2.8349364e-01 0.0000000e+00 
1.0000000e+00 1.0000000e+00 0.0000000e+00 
1.5000000e+00 0.0000000e+00 0.0000000e+00 
1.3750000e+00 7.8349364e-01 0.0000000e+00 
1.2500000e+00 1.0000000e+00 0.0000000e+00 
1.5000000e+00 5.6698728e-01 0.0000000e+00 
1.6250000e+00 2.8349364e-01 0.0000000e+00 
1.7500000e+00 0.0000000e+00 0.0000000e+00 
1.5000000e+00 1.0000000e+00 0.0000000e+00 
1.6250000e+00 7.8349364e-01 0.0000000e+00 
1.7500000e+00 5.6698728e-01 0.0000000e+00 
1.8750000e+00 2.8349364e-01 0.0000000e+00 
2.0000000e+00 0.0000000e+00 0.0000000e+00 
1.7500000e+00 1.0000000e+00 0.0000000e+00 
1.8750000e+00 7.8349364e-01 0.0000000e+00 
2.0000000e+00 5.6698728e-01 0.0000000e+00 
2.1250000e+00 2.8349364e-01 0.0000000e+00 
2.0000000e+00 1.0000000e+00 0.0000000e+00 
2.2500000e+00 0.0000000e+00 0.0000000e+00 
2.1250000e+00 7.8349364e-01 0.0000000e+00 
2.2500000e+00 5.6698728e-01 0.0000000e+00 
2.3750000e+00 2.8349364e-01 0.0000000e+00 
2.2500000e+00 1.0000000e+00 0.0000000e+00 
2.5000000e+00 0.0000000e+00 0.0000000e+00 
2.3750000e+00 7.8349364e-01 0.0000000e+00 
2.5000000e+00 5.6698728e-01 0.0000000e+00 
2.6250000e+00 2.8349364e-01 0.0000000e+00 
2.5000000e+00 1.0000000e+00 0.0000000e+00 
2.6250000e+00 7.8349364e-01 0.0000000e+00 
2.7500000e+00 0.0000000e+00 0.0000000e+00 
2.7500000e+00 5.6698728e-01 0.0000000e+00 
2.8750000e+00 2.8349364e-01 0.0000000e+00 
2.7500000e+00 1.0000000e+00 0.0000000e+00 
2.8750000e+00 7.8349364e-01 0.0000000e+00 
3.0000000e+00 0.0000000e+00 0.0000000e+00 
3.0000000e+00 5.0000000e-01 0.0000000e+00 
3.1250000e+00 2.1650635e-01 0.0000000e+00 
3.0000000e+00 1.0000000e+00 0.0000000e+00 
3.1250000e+00 7.1650636e-01 0.0000000e+00 
3.2500000e+00 0.0000000e+00 0.0000000e+00 
3.2500000e+00 4.3301269e-01 0.0000000e+00 
3.3750000e+00 2.1650635e-01 0.0000000e+00 
3.2500000e+00 1.0000000e+00 0.0000000e+00 
3.3750000e+00 7.1650636e-01 0.0000000e+00 
3.5000000e+00 0.0000000e+00 0.0000000e+00 
3.5000000e+00 4.3301269e-01 0.0000000e+00 
3.6250000e+00 2.1650635e-01 0.0000000e+00 
3.5000000e+00 1.0000000e+00 0.0000000e+00 
3.6250000e+00 7.1650636e-01 0.0000000e+00 
3.7500000e+00 0.0000000e+00 0.0000000e+00 
3.7500000e+00 4.3301269e-01 0.0000000e+00 
3.8750000e+00 2.1650635e-01 0.0000000e+00 
3.7500000e+00 1.0000000e+00 0.0000000e+00 
3.8750000e+00 7.1650636e-01 0.0000000e+00 
4.0000000e+00 0.0000000e+00 0.0000000e+00 
4.0208335e+00 4.6092409e-01 0.0000000e+00 
4.0000000e+00 1.0000000e+00 0.0000000e+00 
4.1458335e+00 2.4441773e-01 0.0000000e+00 
4.1458335e+00 7.4441773e-01 0.0000000e+00 
4.2500000e+00 0.0000000e+00 0.0000000e+00 
4.2916665e+00 4.8883545e-01 0.0000000e+00 
4.2500000e+00 1.0000000e+00 0.0000000e+00 
4.3958335e+00 2.4441773e-01 0.0000000e+00 
4.3958335e+00 7.4441773e-01 0.0000000e+00 
4.5000000e+00 0.0000000e+00 0.0000000e+00 
4.5000000e+00 1.0000000e+00 0.0000000e+00 
4.6458335e+00 4.9441773e-01 0.0000000e+00 
4.7500000e+00 0.0000000e+00 0.0000000e+00 
4.7500000e+00 2.5000000e-01 0.0000000e+00 
4.7500000e+00 7.5000000e-01 0.0000000e+00 
4.7500000e+00 1.0000000e+00 0.0000000e+00 
5.0000000e+00 0.0000000e+00 0.0000000e+00 
5.0000000e+00 2.5000000e-01 0.0000000e+00 
5.0000000e+00 5.0000000e-01 0.0000000e+00 
5.0000000e+00 7.5000000e-01 0.0000000e+00 
5.0000000e+00 1.0000000e+00 0.0000000e+00 

CELLS 38 266
6 0 5 4 2 3 1
6 79 89 85 84 87 82
6 62 52 55 57 53 58
6 85 89 98 87 93 91
6 79 85 75 82 80 76
6 55 52 45 53 49 50
6 75 85 81 80 83 78
6 79 75 69 76 71 74
6 45 52 42 49 47 44
6 55 45 48 50 46 51
6 69 75 65 71 70 66
6 65 75 72 70 73 68
6 69 65 59 66 61 64
6 59 65 55 61 60 56
6 37 48 45 43 46 41
6 100 90 98 95 94 99
6 26 18 11 21 13 19
6 11 18 4 13 10 6
6 26 11 24 19 17 23
6 24 11 15 17 12 20
6 26 24 33 23 28 29
6 33 24 35 28 30 34
6 35 24 27 30 25 31
6 33 35 42 34 39 38
6 42 35 45 39 40 44
6 45 35 37 40 36 41
6 15 27 24 22 25 20
6 96 98 89 97 93 92
6 81 72 75 77 73 78
6 14 4 18 8 10 16
6 5 15 11 9 12 7
6 48 59 55 54 56 51
6 90 81 85 86 83 88
6 27 37 35 32 36 31
6 72 62 65 67 63 68
6 62 55 65 58 60 63
6 90 85 98 88 91 94
6 5 11 4 7 6 3

CELL_TYPES 38
22
22
22
22
22
22
22
22
22
22
22
22
22
22
22
22
22
22
22
22
22
22
22
22
22
22
22
22
22
22
22
22
22
22
22
22
22
22
POINT_DATA 101
FIELD FieldData 2
DISPLACEMENT 3 101  float
0.0000000e+00 0.0000000e+00 0.0000000e+00 
0.0000000e+00 0.0000000e+00 0.0000000e+00 
0.0000000e+00 0.0000000e+00 0.0000000e+00 
-8.2755461e-05 -5.2642019e-05 0.0000000e+00 
0.0000000e+00 0.0000000e+00 0.0000000e+00 
0.0000000e+00 0.0000000e+00 0.0000000e+00 
-1.2795329e-04 -1.2385698e-04 0.0000000e+00 
-1.9403435e-04 -2.2823212e-04 0.0000000e+00 
0.0000000e+00 0.0000000e+00 0.0000000e+00 
0.0000000e+00 0.0000000e+00 0.0000000e+00 
1.0790558e-05 -5.1248313e-05 0.0000000e+00 
-2.6893397e-04 -5.4869603e-04 0.0000000e+00 
-2.1704136e-04 -4.3069816e-04 0.0000000e+00 
-1.9618235e-05 -4.4141975e-04 0.0000000e+00 
0.0000000e+00 0.0000000e+00 0.0000000e+00 
0.0000000e+00 0.0000000e+00 0.0000000e+00 
1.6312522e-04 -7.4271928e-05 0.0000000e+00 
-2.6323766e-04 -1.2082555e-03 0.0000000e+00 
3.4390783e-04 -2.9595569e-04 0.0000000e+00 
-1.0312715e-04 -1.1557810e-03 0.0000000e+00 
-1.2200765e-04 -6.9951086e-04 0.0000000e+00 
5.6968327e-04 -8.6420856e-04 0.0000000e+00 
0.0000000e+00 0.0000000e+00 0.0000000e+00 
-1.2285565e-04 -2.4716384e-03 0.0000000e+00 
-1.4694157e-06 -1.7423294e-03 0.0000000e+00 
7.4800017e-05 -7.0779637e-04 0.0000000e+00 
6.6331221e-04 -2.2075197e-03 0.0000000e+00 
0.0000000e+00 0.0000000e+00 0.0000000e+00 
2.0171607e-04 -2.3655840e-03 0.0000000e+00 
5.3324729e-06 -4.2075734e-03 0.0000000e+00 
2.1742875e-04 -1.3217076e-03 0.0000000e+00 
1.5966955e-04 -5.4875435e-04 0.0000000e+00 
0.0000000e+00 0.0000000e+00 0.0000000e+00 
-5.7254278e-04 -1.8243742e-03 0.0000000e+00 
4.7824597e-05 -1.2208977e-03 0.0000000e+00 
1.7679299e-04 -8.3809084e-04 0.0000000e+00 
1.3923149e-04 -4.0353352e-04 0.0000000e+00 
0.0000000e+00 0.0000000e+00 0.0000000e+00 
-3.3172997e-04 -1.0041245e-03 0.0000000e+00 
-4.4506400e-05 -8.3832536e-04 0.0000000e+00 
7.7158053e-05 -6.7441113e-04 0.0000000e+00 
1.1779113e-04 -3.2509965e-04 0.0000000e+00 
-8.7713044e-05 -9.9167519e-04 0.0000000e+00 
0.0000000e+00 0.0000000e+00 0.0000000e+00 
-7.8052093e-05 -9.5186307e-04 0.0000000e+00 
9.1342677e-05 -6.3405809e-04 0.0000000e+00 
1.3195847e-04 -2.5093454e-04 0.0000000e+00 
-1.8420791e-04 -1.4647822e-03 0.0000000e+00 
0.0000000e+00 0.0000000e+00 0.0000000e+00 
4.0495841e-05 -7.8729988e-04 0.0000000e+00 
1.3432014e-04 -4.1032484e-04 0.0000000e+00 
1.2714611e-04 -1.5483881e-04 0.0000000e+00 
-2.9946223e-04 -5.7249115e-04 0.0000000e+00 
3.3325155e-06 -3.3310158e-04 0.0000000e+00 
0.0000000e+00 0.0000000e+00 0.0000000e+00 
1.0913327e-04 -1.8458811e-04 0.0000000e+00 
9.6932876e-05 -7.2935873e-05 0.0000000e+00 
-1.9998639e-04 -2.1778322e-04 0.0000000e+00 
-1.0067546e-05 -1.1401720e-04 0.0000000e+00 
0.0000000e+00 0.0000000e+00 0.0000000e+00 
7.6582866e-05 -5.8607206e-05 0.0000000e+00 
5.4783559e-05 -2.2166992e-05 0.0000000e+00 
-1.0276135e-04 -6.6193199e-05 0.0000000e+00 
9.5521755e-06 -2.6234869e-05 0.0000000e+00 
0.0000000e+00 0.0000000e+00 0.0000000e+00 
4.7733392e-05 -1.2121292e-05 0.0000000e+00 
3.1459611e-05 -5.2183295e-06 0.0000000e+00 
-5.2537340e-05 -1.0613046e-05 0.0000000e+00 
6.2346185e-06 4.8340362e-06 0.0000000e+00 
0.0000000e+00 0.0000000e+00 0.0000000e+00 
2.6158958e-05 3.6149220e-06 0.0000000e+00 
1.6487900e-05 6.9922851e-07 0.0000000e+00 
-1.7359116e-05 9.5284659e-06 0.0000000e+00 
4.9014120e-06 1.1581510e-05 0.0000000e+00 
0.0000000e+00 0.0000000e+00 0.0000000e+00 
1.2871858e-05 6.6550356e-06 0.0000000e+00 
7.9541205e-06 2.1177432e-06 0.0000000e+00 
-3.8343128e-06 1.1341578e-05 0.0000000e+00 
4.2110437e-06 1.0111337e-05 0.0000000e+00 
0.0000000e+00 0.0000000e+00 0.0000000e+00 
6.2419181e-06 5.4423394e-06 0.0000000e+00 
3.5031526e-06 8.9449140e-06 0.0000000e+00 
3.6940883e-06 1.8784328e-06 0.0000000e+00 
3.3825165e-06 6.4181986e-06 0.0000000e+00 
0.0000000e+00 0.0000000e+00 0.0000000e+00 
2.7628130e-06 3.3598396e-06 0.0000000e+00 
4.3260065e-06 5.4828038e-06 0.0000000e+00 
1.6004943e-06 1.1227908e-06 0.0000000e+00 
2.5894647e-06 3.4715804e-06 0.0000000e+00 
0.0000000e+00 0.0000000e+00 0.0000000e+00 
3.7235736e-06 2.9597679e-06 0.0000000e+00 
1.0324186e-06 1.0008141e-06 0.0000000e+00 
0.0000000e+00 0.0000000e+00 0.0000000e+00 
3.9571839e-07 2.2579211e-07 0.0000000e+00 
1.1267077e-06 8.3205316e-07 0.0000000e+00 
1.9925506e-06 1.1504585e-06 0.0000000e+00 
0.0000000e+00 0.0000000e+00 0.0000000e+00 
0.0000000e+00 0.0000000e+00 0.0000000e+00 
0.0000000e+00 0.0000000e+00 0.0000000e+00 
0.0000000e+00 0.0000000e+00 0.0000000e+00 
0.0000000e+00 0.0000000e+00 0.0000000e+00 
TOTAL_DISPLACEMENT 3 101  float
0.0000000e+00 0.0000000e+00 0.0000000e+00 
0.0000000e+00 0.0000000e+00 0.0000000e+00 
0.0000000e+00 0.0000000e+00 0.0000000e+00 
-8.2755461e-05 -5.2642019e-05 0.0000000e+00 
0.0000000e+00 0.0000000e+00 0.0000000e+00 
0.0000000e+00 0.0000000e+00 0.0000000e+00 
-1.2795329e-04 -1.2385698e-04 0.0000000e+00 
-1.9403435e-04 -2.2823212e-04 0.0000000e+00 
0.0000000e+00 0.0000000e+00 0.0000000e+00 
0.0000000e+00 0.0000000e+00 0.0000000e+00 
1.0790558e-05 -5.1248313e-05 0.0000000e+00 
-2.6893397e-04 -5.4869603e-04 0.0000000e+00 
-2.1704136e-04 -4.3069816e-04 0.0000000e+00 
-1.9618235e-05 -4.4141975e-04 0.0000000e+00 
0.0000000e+00 0.0000000e+00 0.0000000e+00 
0.0000000e+00 0.0000000e+00 0.0000000e+00 
1.6312522e-04 -7.4271928e-05 0.0000000e+00 
-2.6323766e-04 -1.2082555e-03 0.0000000e+00 
3.4390783e-04 -2.9595569e-04 0.0000000e+00 
-1.0312715e-04 -1.1557810e-03 0.0000000e+00 
-1.2200765e-04 -6.9951086e-04 0.0000000e+00 
5.6968327e-04 -8.6420856e-04 0.0000000e+00 
0.0000000e+00 0.0000000e+00 0.0000000e+00 
-1.2285565e-04 -2.4716384e-03 0.0000000e+00 
-1.4694157e-06 -1.7423294e-03 0.0000000e+00 
7.4800017e-05 -7.0779637e-04 0.0000000e+00 
6.6331221e-04 -2.2075197e-03 0.0000000e+00 
0.0000000e+00 0.0000000e+00 0.0000000e+00 
2.0171607e-04 -2.3655840e-03 0.0000000e+00 
5.3324729e-06 -4.2075734e-03 0.0000000e+00 
2.1742875e-04 -1.3217076e-03 0.0000000e+00 
1.5966955e-04 -5.4875435e-04 0.0000000e+00 
0.0000000e+00 0.0000000e+00 0.0000000e+00 
-5.7254278e-04 -1.8243742e-03 0.0000000e+00 
4.7824597e-05 -1.2208977e-03 0.0000000e+00 
1.7679299e-04 -8.3809084e-04 0.0000000e+00 
1.3923149e-04 -4.0353352e-04 0.0000000e+00 
0.0000000e+00 0.0000000e+00 0.0000000e+00 
-3.3172997e-04 -1.0041245e-03 0.0000000e+00 
-4.4506400e-05 -8.3832536e-04 0.0000000e+00 
7.7158053e-05 -6.7441113e-04 0.0000000e+00 
1.1779113e-04 -3.2509965e-04 0.0000000e+00 
-8.7713044e-05 -9.9167519e-04 0.0000000e+00 
0.0000000e+00 0.0000000e+00 0.0000000e+00 
-7.8052093e-05 -9.5186307e-04 0.0000000e+00 
9.1342677e-05 -6.3405809e-04 0.0000000e+00 
1.3195847e-04 -2.5093454e-04 0.0000000e+00 
-1.8420791e-04 -1.4647822e-03 0.0000000e+00 
0.0000000e+00 0.0000000e+00 0.0000000e+00 
4.0495841e-05 -7.8729988e-04 0.0000000e+00 
1.3432014e-04 -4.1032484e-04 0.0000000e+00 
1.2714611e-04 -1.5483881e-04 0.0000000e+00 
-2.9946223e-04 -5.7249115e-04 0.0000000e+00 
3.3325155e-06 -3.3310158e-04 0.0000000e+00 
0.0000000e+00 0.0000000e+00 0.0000000e+00 
1.0913327e-04 -1.8458811e-04 0.0000000e+00 
9.6932876e-05 -7.2935873e-05 0.0000000e+00 
-1.9998639e-04 -2.1778322e-04 0.0000000e+00 
-1.0067546e-05 -1.1401720e-04 0.0000000e+00 
0.0000000e+00 0.0000000e+00 0.0000000e+00 
7.6582866e-05 -5.8607206e-05 0.0000000e+00 
5.4783559e-05 -2.2166992e-05 0.0000000e+00 
-1.0276135e-04 -6.6193199e-05 0.0000000e+00 
9.5521755e-06 -2.6234869e-05 0.0000000e+00 
0.0000000e+00 0.0000000e+00 0.0000000e+00 
4.7733392e-05 -1.2121292e-05 0.0000000e+00 
3.1459611e-05 -5.2183295e-06 0.0000000e+00 
-5.2537340e-05 -1.0613046e-05 0.0000000e+00 
6.2346185e-06 4.8340362e-06 0.0000000e+00 
0.0000000e+00 0.0000000e+00 0.0000000e+00 
2.6158958e-05 3.6149220e-06 0.0000000e+00 
1.6487900e-05 6.9922851e-07 0.0000000e+00 
-1.7359116e-05 9.5284659e-06 0.0000000e+00 
4.9014120e-06 1.1581510e-05 0.0000000e+00 
0.0000000e+00 0.0000000e+00 0.0000000e+00 
1.2871858e-05 6.6550356e-06 0.0000000e+00 
7.9541205e-06 2.1177432e-06 0.0000000e+00 
-3.8343128e-06 1.1341578e-05 0.0000000e+00 
4.2110437e-06 1.0111337e-05 0.0000000e+00 
0.0000000e+00 0.0000000e+00 0.0000000e+00 
6.2419181e-06 5.4423394e-06 0.0000000e+00 
3.5031526e-06 8.9449140e-06 0.0000000e+00 
3.6940883e-06 1.8784328e-06 0.0000000e+00 
3.3825165e-06 6.4181986e-06 0.0000000e+00 
0.0000000e+00 0.0000000e+00 0.0000000e+00 
2.7628130e-06 3.3598396e-06 0.0000000e+00 
4.3260065e-06 5.4828038e-06 0.0000000e+00 
1.6004943e-06 1.1227908e-06 0.0000000e+00 
2.5894647e-06 3.4715804e-06 0.0000000e+00 
0.0000000e+00 0.0000000e+00 0.0000000e+00 
3.7235736e-06 2.9597679e-06 0.0000000e+00 
1.0324186e-06 1.0008141e-06 0.0000000e+00 
0.0000000e+00 0.0000000e+00 0.0000000e+00 
3.9571839e-07 2.2579211e-07 0.0000000e+00 
1.1267077e-06 8.3205316e-07 0.0000000e+00 
1.9925506e-06 1.1504585e-06 0.0000000e+00 
0.0000000e+00 0.0000000e+00 0.0000000e+00 
0.0000000e+00 0.0000000e+00 0.0000000e+00 
0.0000000e+00 0.0000000e+00 0.0000000e+00 
0.0000000e+00 0.0000000e+00 0.0000000e+00 
0.0000000e+00 0.0000000e+00 0.0000000e+00 
CELL_DATA 38
FIELD FieldData 0
