# vtk DataFile Version 4.0
vtk output
ASCII
DATASET UNSTRUCTURED_GRID
POINTS 101 float
0.0000000e+00 0.0000000e+00 0.0000000e+00 
0.0000000e+00 2.5000000e-01 0.0000000e+00 
2.5000000e-01 0.0000000e+00 0.0000000e+00 
2.5000000e-01 2.5000000e-01 0.0000000e+00 
0.0000000e+00 5.0000000e-01 0.0000000e+00 
5.0000000e-01 0.0000000e+00 0.0000000e+00 
3.5416666e-01 5.0558227e-01 0.0000000e+00 
6.0416669e-01 2.5558227e-01 0.0000000e+00 
0.0000000e+00 7.5000000e-01 0.0000000e+00 
7.5000000e-01 0.0000000e+00 0.0000000e+00 
2.5000000e-01 7.5000000e-01 0.0000000e+00 
7.0833331e-01 5.1116455e-01 0.0000000e+00 
8.5416669e-01 2.5558227e-01 0.0000000e+00 
6.0416669e-01 7.5558227e-01 0.0000000e+00 
0.0000000e+00 1.0000000e+00 0.0000000e+00 
1.0000000e+00 0.0000000e+00 0.0000000e+00 
2.5000000e-01 1.0000000e+00 0.0000000e+00 
9.7916669e-01 5.3907591e-01 0.0000000e+00 
5.0000000e-01 1.0000000e+00 0.0000000e+00 
8.5416669e-01 7.5558227e-01 0.0000000e+00 
1.1250000e+00 2.8349364e-01 0.0000000e+00 
7.5000000e-01 1.0000000e+00 0.0000000e+00 
1.2500000e+00 0.0000000e+00 0.0000000e+00 
1.1250000e+00 7.8349364e-01 0.0000000e+00 
1.2500000e+00 5.6698728e-01 0.0000000e+00 
1.3750000e+00 2.8349364e-01 0.0000000e+00 
1.0000000e+00 1.0000000e+00 0.0000000e+00 
1.5000000e+00 0.0000000e+00 0.0000000e+00 
1.3750000e+00 7.8349364e-01 0.0000000e+00 
1.2500000e+00 1.0000000e+00 0.0000000e+00 
1.5000000e+00 5.6698728e-01 0.0000000e+00 
1.6250000e+00 2.8349364e-01 0.0000000e+00 
1.7500000e+00 0.0000000e+00 0.0000000e+00 
1.5000000e+00 1.0000000e+00 0.0000000e+00 
1.6250000e+00 7.8349364e-01 0.0000000e+00 
1.7500000e+00 5.6698728e-01 0.0000000e+00 
1.8750000e+00 2.8349364e-01 0.0000000e+00 
2.0000000e+00 0.0000000e+00 0.0000000e+00 
1.7500000e+00 1.0000000e+00 0.0000000e+00 
1.8750000e+00 7.8349364e-01 0.0000000e+00 
2.0000000e+00 5.6698728e-01 0.0000000e+00 
2.1250000e+00 2.8349364e-01 0.0000000e+00 
2.0000000e+00 1.0000000e+00 0.0000000e+00 
2.2500000e+00 0.0000000e+00 0.0000000e+00 
2.1250000e+00 7.8349364e-01 0.0000000e+00 
2.2500000e+00 5.6698728e-01 0.0000000e+00 
2.3750000e+00 2.8349364e-01 0.0000000e+00 
2.2500000e+00 1.0000000e+00 0.0000000e+00 
2.5000000e+00 0.0000000e+00 0.0000000e+00 
2.3750000e+00 7.8349364e-01 0.0000000e+00 
2.5000000e+00 5.6698728e-01 0.0000000e+00 
2.6250000e+00 2.8349364e-01 0.0000000e+00 
2.5000000e+00 1.0000000e+00 0.0000000e+00 
2.6250000e+00 7.8349364e-01 0.0000000e+00 
2.7500000e+00 0.0000000e+00 0.0000000e+00 
2.7500000e+00 5.6698728e-01 0.0000000e+00 
2.8750000e+00 2.8349364e-01 0.0000000e+00 
2.7500000e+00 1.0000000e+00 0.0000000e+00 
2.8750000e+00 7.8349364e-01 0.0000000e+00 
3.0000000e+00 0.0000000e+00 0.0000000e+00 
3.0000000e+00 5.0000000e-01 0.0000000e+00 
3.1250000e+00 2.1650635e-01 0.0000000e+00 
3.0000000e+00 1.0000000e+00 0.0000000e+00 
3.1250000e+00 7.1650636e-01 0.0000000e+00 
3.2500000e+00 0.0000000e+00 0.0000000e+00 
3.2500000e+00 4.3301269e-01 0.0000000e+00 
3.3750000e+00 2.1650635e-01 0.0000000e+00 
3.2500000e+00 1.0000000e+00 0.0000000e+00 
3.3750000e+00 7.1650636e-01 0.0000000e+00 
3.5000000e+00 0.0000000e+00 0.0000000e+00 
3.5000000e+00 4.3301269e-01 0.0000000e+00 
3.6250000e+00 2.1650635e-01 0.0000000e+00 
3.5000000e+00 1.0000000e+00 0.0000000e+00 
3.6250000e+00 7.1650636e-01 0.0000000e+00 
3.7500000e+00 0.0000000e+00 0.0000000e+00 
3.7500000e+00 4.3301269e-01 0.0000000e+00 
3.8750000e+00 2.1650635e-01 0.0000000e+00 
3.7500000e+00 1.0000000e+00 0.0000000e+00 
3.8750000e+00 7.1650636e-01 0.0000000e+00 
4.0000000e+00 0.0000000e+00 0.0000000e+00 
4.0208335e+00 4.6092409e-01 0.0000000e+00 
4.0000000e+00 1.0000000e+00 0.0000000e+00 
4.1458335e+00 2.4441773e-01 0.0000000e+00 
4.1458335e+00 7.4441773e-01 0.0000000e+00 
4.2500000e+00 0.0000000e+00 0.0000000e+00 
4.2916665e+00 4.8883545e-01 0.0000000e+00 
4.2500000e+00 1.0000000e+00 0.0000000e+00 
4.3958335e+00 2.4441773e-01 0.0000000e+00 
4.3958335e+00 7.4441773e-01 0.0000000e+00 
4.5000000e+00 0.0000000e+00 0.0000000e+00 
4.5000000e+00 1.0000000e+00 0.0000000e+00 
4.6458335e+00 4.9441773e-01 0.0000000e+00 
4.7500000e+00 0.0000000e+00 0.0000000e+00 
4.7500000e+00 2.5000000e-01 0.0000000e+00 
4.7500000e+00 7.5000000e-01 0.0000000e+00 
4.7500000e+00 1.0000000e+00 0.0000000e+00 
5.0000000e+00 0.0000000e+00 0.0000000e+00 
5.0000000e+00 2.5000000e-01 0.0000000e+00 
5.0000000e+00 5.0000000e-01 0.0000000e+00 
5.0000000e+00 7.5000000e-01 0.0000000e+00 
5.0000000e+00 1.0000000e+00 0.0000000e+00 

CELLS 38 266
6 0 5 4 2 3 1
6 79 89 85 84 87 82
6 62 52 55 57 53 58
6 85 89 98 87 93 91
6 79 85 75 82 80 76
6 55 52 45 53 49 50
6 75 85 81 80 83 78
6 79 75 69 76 71 74
6 45 52 42 49 47 44
6 55 45 48 50 46 51
6 69 75 65 71 70 66
6 65 75 72 70 73 68
6 69 65 59 66 61 64
6 59 65 55 61 60 56
6 37 48 45 43 46 41
6 100 90 98 95 94 99
6 26 18 11 21 13 19
6 11 18 4 13 10 6
6 26 11 24 19 17 23
6 24 11 15 17 12 20
6 26 24 33 23 28 29
6 33 24 35 28 30 34
6 35 24 27 30 25 31
6 33 35 42 34 39 38
6 42 35 45 39 40 44
6 45 35 37 40 36 41
6 15 27 24 22 25 20
6 96 98 89 97 93 92
6 81 72 75 77 73 78
6 14 4 18 8 10 16
6 5 15 11 9 12 7
6 48 59 55 54 56 51
6 90 81 85 86 83 88
6 27 37 35 32 36 31
6 72 62 65 67 63 68
6 62 55 65 58 60 63
6 90 85 98 88 91 94
6 5 11 4 7 6 3

CELL_TYPES 38
22
22
22
22
22
22
22
22
22
22
22
22
22
22
22
22
22
22
22
22
22
22
22
22
22
22
22
22
22
22
22
22
22
22
22
22
22
22
POINT_DATA 101
FIELD FieldData 2
DISPLACEMENT 3 101  float
0.0000000e+00 0.0000000e+00 0.0000000e+00 
0.0000000e+00 0.0000000e+00 0.0000000e+00 
0.0000000e+00 0.0000000e+00 0.0000000e+00 
-2.6464035e-05 -1.9613235e-06 0.0000000e+00 
0.0000000e+00 0.0000000e+00 0.0000000e+00 
0.0000000e+00 0.0000000e+00 0.0000000e+00 
-3.5681660e-05 4.7182330e-06 0.0000000e+00 
-8.5957479e-05 -3.1053667e-05 0.0000000e+00 
0.0000000e+00 0.0000000e+00 0.0000000e+00 
0.0000000e+00 0.0000000e+00 0.0000000e+00 
5.3884601e-06 1.4699523e-05 0.0000000e+00 
-9.7501746e-05 -6.4598047e-05 0.0000000e+00 
-1.4721262e-04 -9.7610158e-05 0.0000000e+00 
1.1991847e-05 -2.1740978e-05 0.0000000e+00 
0.0000000e+00 0.0000000e+00 0.0000000e+00 
0.0000000e+00 0.0000000e+00 0.0000000e+00 
2.9539962e-05 8.3304803e-06 0.0000000e+00 
-1.7843129e-04 -2.4989690e-04 0.0000000e+00 
7.9452388e-05 -4.5915212e-06 0.0000000e+00 
1.0961162e-05 -1.4465560e-04 0.0000000e+00 
-2.2546016e-04 -2.7161441e-04 0.0000000e+00 
1.9327893e-04 -9.3560520e-05 0.0000000e+00 
0.0000000e+00 0.0000000e+00 0.0000000e+00 
1.5588412e-05 -5.0326798e-04 0.0000000e+00 
-2.7702475e-04 -6.9671212e-04 0.0000000e+00 
-2.3821033e-04 -5.0316635e-04 0.0000000e+00 
3.4836907e-04 -3.1425705e-04 0.0000000e+00 
0.0000000e+00 0.0000000e+00 0.0000000e+00 
-6.5486820e-05 -1.2775755e-03 0.0000000e+00 
5.6822371e-04 -8.7211712e-04 0.0000000e+00 
-2.6188628e-04 -1.3412477e-03 0.0000000e+00 
-1.2447435e-04 -7.0335611e-04 0.0000000e+00 
0.0000000e+00 0.0000000e+00 0.0000000e+00 
6.7016046e-04 -2.2201042e-03 0.0000000e+00 
-1.3115510e-04 -2.4855125e-03 0.0000000e+00 
-6.3377770e-06 -1.7437526e-03 0.0000000e+00 
7.2783732e-05 -7.0876715e-04 0.0000000e+00 
0.0000000e+00 0.0000000e+00 0.0000000e+00 
-1.0773407e-08 -4.2185253e-03 0.0000000e+00 
1.9659394e-04 -2.3712041e-03 0.0000000e+00 
2.1420422e-04 -1.3241309e-03 0.0000000e+00 
1.5840532e-04 -5.4943771e-04 0.0000000e+00 
-5.8106257e-04 -1.8291491e-03 0.0000000e+00 
0.0000000e+00 0.0000000e+00 0.0000000e+00 
4.3339234e-05 -1.2230277e-03 0.0000000e+00 
1.7428261e-04 -8.3898462e-04 0.0000000e+00 
1.3837130e-04 -4.0376262e-04 0.0000000e+00 
-3.3816483e-04 -1.0052144e-03 0.0000000e+00 
0.0000000e+00 0.0000000e+00 0.0000000e+00 
-4.8458740e-05 -8.3824800e-04 0.0000000e+00 
7.4423668e-05 -6.7413517e-04 0.0000000e+00 
1.1727098e-04 -3.2517547e-04 0.0000000e+00 
-9.2302456e-05 -9.9072221e-04 0.0000000e+00 
-8.1700091e-05 -9.5047138e-04 0.0000000e+00 
0.0000000e+00 0.0000000e+00 0.0000000e+00 
8.7746004e-05 -6.3377916e-04 0.0000000e+00 
1.3244599e-04 -2.5138905e-04 0.0000000e+00 
-1.8439157e-04 -1.4634209e-03 0.0000000e+00 
3.5988465e-05 -7.8705116e-04 0.0000000e+00 
0.0000000e+00 0.0000000e+00 0.0000000e+00 
1.4263240e-04 -3.6036375e-04 0.0000000e+00 
1.0790065e-04 -1.2045717e-04 0.0000000e+00 
-2.9178881e-04 -5.7221978e-04 0.0000000e+00 
5.2415824e-05 -3.2240164e-04 0.0000000e+00 
0.0000000e+00 0.0000000e+00 0.0000000e+00 
1.2893099e-04 -1.5885451e-04 0.0000000e+00 
8.4212799e-05 -6.0167436e-05 0.0000000e+00 
-2.0262887e-04 -2.2398996e-04 0.0000000e+00 
2.3966055e-05 -1.1474714e-04 0.0000000e+00 
0.0000000e+00 0.0000000e+00 0.0000000e+00 
8.1631952e-05 -5.4833210e-05 0.0000000e+00 
5.3709649e-05 -2.1968270e-05 0.0000000e+00 
-1.1132662e-04 -6.4313914e-05 0.0000000e+00 
1.0311789e-05 -2.6010890e-05 0.0000000e+00 
0.0000000e+00 0.0000000e+00 0.0000000e+00 
4.6517358e-05 -1.2681588e-05 0.0000000e+00 
3.0591829e-05 -5.4003785e-06 0.0000000e+00 
-5.6414487e-05 -9.3914759e-06 0.0000000e+00 
5.5756659e-06 5.3889753e-06 0.0000000e+00 
0.0000000e+00 0.0000000e+00 0.0000000e+00 
2.2621176e-05 5.0111735e-06 0.0000000e+00 
-1.8859933e-05 1.0773397e-05 0.0000000e+00 
1.5671438e-05 1.3906449e-06 0.0000000e+00 
2.1880103e-06 1.2326865e-05 0.0000000e+00 
0.0000000e+00 0.0000000e+00 0.0000000e+00 
9.0741778e-06 7.4805666e-06 0.0000000e+00 
-4.6911837e-06 1.1470715e-05 0.0000000e+00 
7.1552445e-06 2.4051815e-06 0.0000000e+00 
2.1756468e-06 9.7486281e-06 0.0000000e+00 
0.0000000e+00 0.0000000e+00 0.0000000e+00 
2.3986520e-06 8.4531230e-06 0.0000000e+00 
2.8192717e-06 3.8451321e-06 0.0000000e+00 
0.0000000e+00 0.0000000e+00 0.0000000e+00 
1.6964445e-06 1.0084527e-06 0.0000000e+00 
1.1188770e-06 3.4767813e-06 0.0000000e+00 
2.2947904e-06 3.6320730e-06 0.0000000e+00 
0.0000000e+00 0.0000000e+00 0.0000000e+00 
0.0000000e+00 0.0000000e+00 0.0000000e+00 
0.0000000e+00 0.0000000e+00 0.0000000e+00 
0.0000000e+00 0.0000000e+00 0.0000000e+00 
0.0000000e+00 0.0000000e+00 0.0000000e+00 
TOTAL_DISPLACEMENT 3 101  float
0.0000000e+00 0.0000000e+00 0.0000000e+00 
0.0000000e+00 0.0000000e+00 0.0000000e+00 
0.0000000e+00 0.0000000e+00 0.0000000e+00 
-2.6464035e-05 -1.9613235e-06 0.0000000e+00 
0.0000000e+00 0.0000000e+00 0.0000000e+00 
0.0000000e+00 0.0000000e+00 0.0000000e+00 
-3.5681660e-05 4.7182330e-06 0.0000000e+00 
-8.5957479e-05 -3.1053667e-05 0.0000000e+00 
0.0000000e+00 0.0000000e+00 0.0000000e+00 
0.0000000e+00 0.0000000e+00 0.0000000e+00 
5.3884601e-06 1.4699523e-05 0.0000000e+00 
-9.7501746e-05 -6.4598047e-05 0.0000000e+00 
-1.4721262e-04 -9.7610158e-05 0.0000000e+00 
1.1991847e-05 -2.1740978e-05 0.0000000e+00 
0.0000000e+00 0.0000000e+00 0.0000000e+00 
0.0000000e+00 0.0000000e+00 0.0000000e+00 
2.9539962e-05 8.3304803e-06 0.0000000e+00 
-1.7843129e-04 -2.4989690e-04 0.0000000e+00 
7.9452388e-05 -4.5915212e-06 0.0000000e+00 
1.0961162e-05 -1.4465560e-04 0.0000000e+00 
-2.2546016e-04 -2.7161441e-04 0.0000000e+00 
1.9327893e-04 -9.3560520e-05 0.0000000e+00 
0.0000000e+00 0.0000000e+00 0.0000000e+00 
1.5588412e-05 -5.0326798e-04 0.0000000e+00 
-2.7702475e-04 -6.9671212e-04 0.0000000e+00 
-2.3821033e-04 -5.0316635e-04 0.0000000e+00 
3.4836907e-04 -3.1425705e-04 0.0000000e+00 
0.0000000e+00 0.0000000e+00 0.0000000e+00 
-6.5486820e-05 -1.2775755e-03 0.0000000e+00 
5.6822371e-04 -8.7211712e-04 0.0000000e+00 
-2.6188628e-04 -1.3412477e-03 0.0000000e+00 
-1.2447435e-04 -7.0335611e-04 0.0000000e+00 
0.0000000e+00 0.0000000e+00 0.0000000e+00 
6.7016046e-04 -2.2201042e-03 0.0000000e+00 
-1.3115510e-04 -2.4855125e-03 0.0000000e+00 
-6.3377770e-06 -1.7437526e-03 0.0000000e+00 
7.2783732e-05 -7.0876715e-04 0.0000000e+00 
0.0000000e+00 0.0000000e+00 0.0000000e+00 
-1.0773407e-08 -4.2185253e-03 0.0000000e+00 
1.9659394e-04 -2.3712041e-03 0.0000000e+00 
2.1420422e-04 -1.3241309e-03 0.0000000e+00 
1.5840532e-04 -5.4943771e-04 0.0000000e+00 
-5.8106257e-04 -1.8291491e-03 0.0000000e+00 
0.0000000e+00 0.0000000e+00 0.0000000e+00 
4.3339234e-05 -1.2230277e-03 0.0000000e+00 
1.7428261e-04 -8.3898462e-04 0.0000000e+00 
1.3837130e-04 -4.0376262e-04 0.0000000e+00 
-3.3816483e-04 -1.0052144e-03 0.0000000e+00 
0.0000000e+00 0.0000000e+00 0.0000000e+00 
-4.8458740e-05 -8.3824800e-04 0.0000000e+00 
7.4423668e-05 -6.7413517e-04 0.0000000e+00 
1.1727098e-04 -3.2517547e-04 0.0000000e+00 
-9.2302456e-05 -9.9072221e-04 0.0000000e+00 
-8.1700091e-05 -9.5047138e-04 0.0000000e+00 
0.0000000e+00 0.0000000e+00 0.0000000e+00 
8.7746004e-05 -6.3377916e-04 0.0000000e+00 
1.3244599e-04 -2.5138905e-04 0.0000000e+00 
-1.8439157e-04 -1.4634209e-03 0.0000000e+00 
3.5988465e-05 -7.8705116e-04 0.0000000e+00 
0.0000000e+00 0.0000000e+00 0.0000000e+00 
1.4263240e-04 -3.6036375e-04 0.0000000e+00 
1.0790065e-04 -1.2045717e-04 0.0000000e+00 
-2.9178881e-04 -5.7221978e-04 0.0000000e+00 
5.2415824e-05 -3.2240164e-04 0.0000000e+00 
0.0000000e+00 0.0000000e+00 0.0000000e+00 
1.2893099e-04 -1.5885451e-04 0.0000000e+00 
8.4212799e-05 -6.0167436e-05 0.0000000e+00 
-2.0262887e-04 -2.2398996e-04 0.0000000e+00 
2.3966055e-05 -1.1474714e-04 0.0000000e+00 
0.0000000e+00 0.0000000e+00 0.0000000e+00 
8.1631952e-05 -5.4833210e-05 0.0000000e+00 
5.3709649e-05 -2.1968270e-05 0.0000000e+00 
-1.1132662e-04 -6.4313914e-05 0.0000000e+00 
1.0311789e-05 -2.6010890e-05 0.0000000e+00 
0.0000000e+00 0.0000000e+00 0.0000000e+00 
4.6517358e-05 -1.2681588e-05 0.0000000e+00 
3.0591829e-05 -5.4003785e-06 0.0000000e+00 
-5.6414487e-05 -9.3914759e-06 0.0000000e+00 
5.5756659e-06 5.3889753e-06 0.0000000e+00 
0.0000000e+00 0.0000000e+00 0.0000000e+00 
2.2621176e-05 5.0111735e-06 0.0000000e+00 
-1.8859933e-05 1.0773397e-05 0.0000000e+00 
1.5671438e-05 1.3906449e-06 0.0000000e+00 
2.1880103e-06 1.2326865e-05 0.0000000e+00 
0.0000000e+00 0.0000000e+00 0.0000000e+00 
9.0741778e-06 7.4805666e-06 0.0000000e+00 
-4.6911837e-06 1.1470715e-05 0.0000000e+00 
7.1552445e-06 2.4051815e-06 0.0000000e+00 
2.1756468e-06 9.7486281e-06 0.0000000e+00 
0.0000000e+00 0.0000000e+00 0.0000000e+00 
2.3986520e-06 8.4531230e-06 0.0000000e+00 
2.8192717e-06 3.8451321e-06 0.0000000e+00 
0.0000000e+00 0.0000000e+00 0.0000000e+00 
1.6964445e-06 1.0084527e-06 0.0000000e+00 
1.1188770e-06 3.4767813e-06 0.0000000e+00 
2.2947904e-06 3.6320730e-06 0.0000000e+00 
0.0000000e+00 0.0000000e+00 0.0000000e+00 
0.0000000e+00 0.0000000e+00 0.0000000e+00 
0.0000000e+00 0.0000000e+00 0.0000000e+00 
0.0000000e+00 0.0000000e+00 0.0000000e+00 
0.0000000e+00 0.0000000e+00 0.0000000e+00 
CELL_DATA 38
FIELD FieldData 0
