# vtk DataFile Version 4.0
vtk output
ASCII
DATASET UNSTRUCTURED_GRID
POINTS 101 float
0.0000000e+00 0.0000000e+00 0.0000000e+00 
0.0000000e+00 2.5000000e-01 0.0000000e+00 
2.5000000e-01 0.0000000e+00 0.0000000e+00 
2.5000000e-01 2.5000000e-01 0.0000000e+00 
0.0000000e+00 5.0000000e-01 0.0000000e+00 
5.0000000e-01 0.0000000e+00 0.0000000e+00 
3.5416666e-01 5.0558227e-01 0.0000000e+00 
6.0416669e-01 2.5558227e-01 0.0000000e+00 
0.0000000e+00 7.5000000e-01 0.0000000e+00 
7.5000000e-01 0.0000000e+00 0.0000000e+00 
2.5000000e-01 7.5000000e-01 0.0000000e+00 
7.0833331e-01 5.1116455e-01 0.0000000e+00 
8.5416669e-01 2.5558227e-01 0.0000000e+00 
6.0416669e-01 7.5558227e-01 0.0000000e+00 
0.0000000e+00 1.0000000e+00 0.0000000e+00 
1.0000000e+00 0.0000000e+00 0.0000000e+00 
2.5000000e-01 1.0000000e+00 0.0000000e+00 
9.7916669e-01 5.3907591e-01 0.0000000e+00 
5.0000000e-01 1.0000000e+00 0.0000000e+00 
8.5416669e-01 7.5558227e-01 0.0000000e+00 
1.1250000e+00 2.8349364e-01 0.0000000e+00 
7.5000000e-01 1.0000000e+00 0.0000000e+00 
1.2500000e+00 0.0000000e+00 0.0000000e+00 
1.1250000e+00 7.8349364e-01 0.0000000e+00 
1.2500000e+00 5.6698728e-01 0.0000000e+00 
1.3750000e+00 2.8349364e-01 0.0000000e+00 
1.0000000e+00 1.0000000e+00 0.0000000e+00 
1.5000000e+00 0.0000000e+00 0.0000000e+00 
1.3750000e+00 7.8349364e-01 0.0000000e+00 
1.2500000e+00 1.0000000e+00 0.0000000e+00 
1.5000000e+00 5.6698728e-01 0.0000000e+00 
1.6250000e+00 2.8349364e-01 0.0000000e+00 
1.7500000e+00 0.0000000e+00 0.0000000e+00 
1.5000000e+00 1.0000000e+00 0.0000000e+00 
1.6250000e+00 7.8349364e-01 0.0000000e+00 
1.7500000e+00 5.6698728e-01 0.0000000e+00 
1.8750000e+00 2.8349364e-01 0.0000000e+00 
2.0000000e+00 0.0000000e+00 0.0000000e+00 
1.7500000e+00 1.0000000e+00 0.0000000e+00 
1.8750000e+00 7.8349364e-01 0.0000000e+00 
2.0000000e+00 5.6698728e-01 0.0000000e+00 
2.1250000e+00 2.8349364e-01 0.0000000e+00 
2.0000000e+00 1.0000000e+00 0.0000000e+00 
2.2500000e+00 0.0000000e+00 0.0000000e+00 
2.1250000e+00 7.8349364e-01 0.0000000e+00 
2.2500000e+00 5.6698728e-01 0.0000000e+00 
2.3750000e+00 2.8349364e-01 0.0000000e+00 
2.2500000e+00 1.0000000e+00 0.0000000e+00 
2.5000000e+00 0.0000000e+00 0.0000000e+00 
2.3750000e+00 7.8349364e-01 0.0000000e+00 
2.5000000e+00 5.6698728e-01 0.0000000e+00 
2.6250000e+00 2.8349364e-01 0.0000000e+00 
2.5000000e+00 1.0000000e+00 0.0000000e+00 
2.6250000e+00 7.8349364e-01 0.0000000e+00 
2.7500000e+00 0.0000000e+00 0.0000000e+00 
2.7500000e+00 5.6698728e-01 0.0000000e+00 
2.8750000e+00 2.8349364e-01 0.0000000e+00 
2.7500000e+00 1.0000000e+00 0.0000000e+00 
2.8750000e+00 7.8349364e-01 0.0000000e+00 
3.0000000e+00 0.0000000e+00 0.0000000e+00 
3.0000000e+00 5.0000000e-01 0.0000000e+00 
3.1250000e+00 2.1650635e-01 0.0000000e+00 
3.0000000e+00 1.0000000e+00 0.0000000e+00 
3.1250000e+00 7.1650636e-01 0.0000000e+00 
3.2500000e+00 0.0000000e+00 0.0000000e+00 
3.2500000e+00 4.3301269e-01 0.0000000e+00 
3.3750000e+00 2.1650635e-01 0.0000000e+00 
3.2500000e+00 1.0000000e+00 0.0000000e+00 
3.3750000e+00 7.1650636e-01 0.0000000e+00 
3.5000000e+00 0.0000000e+00 0.0000000e+00 
3.5000000e+00 4.3301269e-01 0.0000000e+00 
3.6250000e+00 2.1650635e-01 0.0000000e+00 
3.5000000e+00 1.0000000e+00 0.0000000e+00 
3.6250000e+00 7.1650636e-01 0.0000000e+00 
3.7500000e+00 0.0000000e+00 0.0000000e+00 
3.7500000e+00 4.3301269e-01 0.0000000e+00 
3.8750000e+00 2.1650635e-01 0.0000000e+00 
3.7500000e+00 1.0000000e+00 0.0000000e+00 
3.8750000e+00 7.1650636e-01 0.0000000e+00 
4.0000000e+00 0.0000000e+00 0.0000000e+00 
4.0208335e+00 4.6092409e-01 0.0000000e+00 
4.0000000e+00 1.0000000e+00 0.0000000e+00 
4.1458335e+00 2.4441773e-01 0.0000000e+00 
4.1458335e+00 7.4441773e-01 0.0000000e+00 
4.2500000e+00 0.0000000e+00 0.0000000e+00 
4.2916665e+00 4.8883545e-01 0.0000000e+00 
4.2500000e+00 1.0000000e+00 0.0000000e+00 
4.3958335e+00 2.4441773e-01 0.0000000e+00 
4.3958335e+00 7.4441773e-01 0.0000000e+00 
4.5000000e+00 0.0000000e+00 0.0000000e+00 
4.5000000e+00 1.0000000e+00 0.0000000e+00 
4.6458335e+00 4.9441773e-01 0.0000000e+00 
4.7500000e+00 0.0000000e+00 0.0000000e+00 
4.7500000e+00 2.5000000e-01 0.0000000e+00 
4.7500000e+00 7.5000000e-01 0.0000000e+00 
4.7500000e+00 1.0000000e+00 0.0000000e+00 
5.0000000e+00 0.0000000e+00 0.0000000e+00 
5.0000000e+00 2.5000000e-01 0.0000000e+00 
5.0000000e+00 5.0000000e-01 0.0000000e+00 
5.0000000e+00 7.5000000e-01 0.0000000e+00 
5.0000000e+00 1.0000000e+00 0.0000000e+00 

CELLS 38 266
6 0 5 4 2 3 1
6 79 89 85 84 87 82
6 62 52 55 57 53 58
6 85 89 98 87 93 91
6 79 85 75 82 80 76
6 55 52 45 53 49 50
6 75 85 81 80 83 78
6 79 75 69 76 71 74
6 45 52 42 49 47 44
6 55 45 48 50 46 51
6 69 75 65 71 70 66
6 65 75 72 70 73 68
6 69 65 59 66 61 64
6 59 65 55 61 60 56
6 37 48 45 43 46 41
6 100 90 98 95 94 99
6 26 18 11 21 13 19
6 11 18 4 13 10 6
6 26 11 24 19 17 23
6 24 11 15 17 12 20
6 26 24 33 23 28 29
6 33 24 35 28 30 34
6 35 24 27 30 25 31
6 33 35 42 34 39 38
6 42 35 45 39 40 44
6 45 35 37 40 36 41
6 15 27 24 22 25 20
6 96 98 89 97 93 92
6 81 72 75 77 73 78
6 14 4 18 8 10 16
6 5 15 11 9 12 7
6 48 59 55 54 56 51
6 90 81 85 86 83 88
6 27 37 35 32 36 31
6 72 62 65 67 63 68
6 62 55 65 58 60 63
6 90 85 98 88 91 94
6 5 11 4 7 6 3

CELL_TYPES 38
22
22
22
22
22
22
22
22
22
22
22
22
22
22
22
22
22
22
22
22
22
22
22
22
22
22
22
22
22
22
22
22
22
22
22
22
22
22
POINT_DATA 101
FIELD FieldData 2
DISPLACEMENT 3 101  float
0.0000000e+00 0.0000000e+00 0.0000000e+00 
0.0000000e+00 0.0000000e+00 0.0000000e+00 
0.0000000e+00 0.0000000e+00 0.0000000e+00 
-1.2897114e-05 2.3942193e-06 0.0000000e+00 
0.0000000e+00 0.0000000e+00 0.0000000e+00 
0.0000000e+00 0.0000000e+00 0.0000000e+00 
-1.7046201e-05 1.2635439e-05 0.0000000e+00 
-4.7519305e-05 -3.1372535e-06 0.0000000e+00 
0.0000000e+00 0.0000000e+00 0.0000000e+00 
0.0000000e+00 0.0000000e+00 0.0000000e+00 
1.4579418e-06 1.4216583e-05 0.0000000e+00 
-5.0708924e-05 -2.1631060e-08 0.0000000e+00 
-9.1578739e-05 -3.0326504e-05 0.0000000e+00 
6.0308348e-06 1.7958859e-05 0.0000000e+00 
0.0000000e+00 0.0000000e+00 0.0000000e+00 
0.0000000e+00 0.0000000e+00 0.0000000e+00 
7.0652641e-06 1.1735179e-05 0.0000000e+00 
-1.0437686e-04 -6.9226728e-05 0.0000000e+00 
2.6961197e-05 1.8864799e-05 0.0000000e+00 
1.1853551e-05 -1.6878739e-05 0.0000000e+00 
-1.6410538e-04 -1.1555589e-04 0.0000000e+00 
8.4849926e-05 -3.4833586e-06 0.0000000e+00 
0.0000000e+00 0.0000000e+00 0.0000000e+00 
3.3501536e-05 -1.5072212e-04 0.0000000e+00 
-1.8584241e-04 -2.8633719e-04 0.0000000e+00 
-2.2425877e-04 -2.7073707e-04 0.0000000e+00 
1.7356356e-04 -7.8447476e-05 0.0000000e+00 
0.0000000e+00 0.0000000e+00 0.0000000e+00 
1.2990998e-05 -4.7713498e-04 0.0000000e+00 
3.6757515e-04 -2.9980802e-04 0.0000000e+00 
-2.5868358e-04 -7.0927927e-04 0.0000000e+00 
-2.2986250e-04 -5.0280226e-04 0.0000000e+00 
0.0000000e+00 0.0000000e+00 0.0000000e+00 
6.2947557e-04 -7.6237170e-04 0.0000000e+00 
-1.3419722e-04 -1.3143938e-03 0.0000000e+00 
-2.2882673e-04 -1.3383711e-03 0.0000000e+00 
-1.1640324e-04 -7.0196460e-04 0.0000000e+00 
0.0000000e+00 0.0000000e+00 0.0000000e+00 
6.1989273e-04 -2.3871716e-03 0.0000000e+00 
-2.4180430e-04 -2.7761981e-03 0.0000000e+00 
6.1236992e-06 -1.7290846e-03 0.0000000e+00 
7.4991236e-05 -7.0070697e-04 0.0000000e+00 
-4.3452106e-05 -5.2652727e-03 0.0000000e+00 
0.0000000e+00 0.0000000e+00 0.0000000e+00 
2.9895420e-04 -2.6168197e-03 0.0000000e+00 
1.8550758e-04 -1.2762854e-03 0.0000000e+00 
1.4882944e-04 -5.3708348e-04 0.0000000e+00 
-5.2721519e-04 -1.9143230e-03 0.0000000e+00 
0.0000000e+00 0.0000000e+00 0.0000000e+00 
9.4493611e-05 -1.2314331e-03 0.0000000e+00 
1.4539153e-04 -8.3235843e-04 0.0000000e+00 
1.3229750e-04 -3.9770186e-04 0.0000000e+00 
-3.4078775e-04 -9.6231507e-04 0.0000000e+00 
-5.8045080e-05 -8.5517735e-04 0.0000000e+00 
0.0000000e+00 0.0000000e+00 0.0000000e+00 
8.6081687e-05 -6.8539946e-04 0.0000000e+00 
1.1890649e-04 -3.2510125e-04 0.0000000e+00 
-1.2889535e-04 -1.0521173e-03 0.0000000e+00 
-1.1122233e-04 -1.0439090e-03 0.0000000e+00 
0.0000000e+00 0.0000000e+00 0.0000000e+00 
1.2444673e-04 -5.4627185e-04 0.0000000e+00 
1.1236678e-04 -1.9015174e-04 0.0000000e+00 
-1.9064610e-04 -1.7794389e-03 0.0000000e+00 
1.0119744e-04 -7.6914765e-04 0.0000000e+00 
0.0000000e+00 0.0000000e+00 0.0000000e+00 
1.3584389e-04 -2.9644254e-04 0.0000000e+00 
1.0326682e-04 -1.1483517e-04 0.0000000e+00 
-2.6604193e-04 -6.2594062e-04 0.0000000e+00 
6.6450440e-05 -3.3406858e-04 0.0000000e+00 
0.0000000e+00 0.0000000e+00 0.0000000e+00 
1.1830287e-04 -1.5221494e-04 0.0000000e+00 
8.0094251e-05 -5.8540532e-05 0.0000000e+00 
-2.0975634e-04 -2.1287377e-04 0.0000000e+00 
2.8456965e-05 -1.1673432e-04 0.0000000e+00 
0.0000000e+00 0.0000000e+00 0.0000000e+00 
8.3772407e-05 -6.1900493e-05 0.0000000e+00 
5.3477132e-05 -2.3950448e-05 0.0000000e+00 
-1.1959885e-04 -6.9448361e-05 0.0000000e+00 
1.2597418e-05 -2.6160051e-05 0.0000000e+00 
0.0000000e+00 0.0000000e+00 0.0000000e+00 
4.3644632e-05 -9.5851856e-06 0.0000000e+00 
-5.1424180e-05 -5.5369164e-06 0.0000000e+00 
3.0523923e-05 -4.7846002e-06 0.0000000e+00 
2.2829522e-06 7.0690098e-06 0.0000000e+00 
0.0000000e+00 0.0000000e+00 0.0000000e+00 
1.8924062e-05 5.4913939e-06 0.0000000e+00 
-2.0593534e-05 9.3738772e-06 0.0000000e+00 
1.5171665e-05 1.1180125e-06 0.0000000e+00 
1.9820200e-06 1.1782565e-05 0.0000000e+00 
0.0000000e+00 0.0000000e+00 0.0000000e+00 
-2.6401060e-06 1.1240914e-05 0.0000000e+00 
6.1147953e-06 5.5425121e-06 0.0000000e+00 
0.0000000e+00 0.0000000e+00 0.0000000e+00 
3.9996899e-06 1.2791656e-06 0.0000000e+00 
9.6031465e-07 5.7478746e-06 0.0000000e+00 
8.9372321e-07 5.4882494e-06 0.0000000e+00 
0.0000000e+00 0.0000000e+00 0.0000000e+00 
0.0000000e+00 0.0000000e+00 0.0000000e+00 
0.0000000e+00 0.0000000e+00 0.0000000e+00 
0.0000000e+00 0.0000000e+00 0.0000000e+00 
0.0000000e+00 0.0000000e+00 0.0000000e+00 
TOTAL_DISPLACEMENT 3 101  float
0.0000000e+00 0.0000000e+00 0.0000000e+00 
0.0000000e+00 0.0000000e+00 0.0000000e+00 
0.0000000e+00 0.0000000e+00 0.0000000e+00 
-1.2897114e-05 2.3942193e-06 0.0000000e+00 
0.0000000e+00 0.0000000e+00 0.0000000e+00 
0.0000000e+00 0.0000000e+00 0.0000000e+00 
-1.7046201e-05 1.2635439e-05 0.0000000e+00 
-4.7519305e-05 -3.1372535e-06 0.0000000e+00 
0.0000000e+00 0.0000000e+00 0.0000000e+00 
0.0000000e+00 0.0000000e+00 0.0000000e+00 
1.4579418e-06 1.4216583e-05 0.0000000e+00 
-5.0708924e-05 -2.1631060e-08 0.0000000e+00 
-9.1578739e-05 -3.0326504e-05 0.0000000e+00 
6.0308348e-06 1.7958859e-05 0.0000000e+00 
0.0000000e+00 0.0000000e+00 0.0000000e+00 
0.0000000e+00 0.0000000e+00 0.0000000e+00 
7.0652641e-06 1.1735179e-05 0.0000000e+00 
-1.0437686e-04 -6.9226728e-05 0.0000000e+00 
2.6961197e-05 1.8864799e-05 0.0000000e+00 
1.1853551e-05 -1.6878739e-05 0.0000000e+00 
-1.6410538e-04 -1.1555589e-04 0.0000000e+00 
8.4849926e-05 -3.4833586e-06 0.0000000e+00 
0.0000000e+00 0.0000000e+00 0.0000000e+00 
3.3501536e-05 -1.5072212e-04 0.0000000e+00 
-1.8584241e-04 -2.8633719e-04 0.0000000e+00 
-2.2425877e-04 -2.7073707e-04 0.0000000e+00 
1.7356356e-04 -7.8447476e-05 0.0000000e+00 
0.0000000e+00 0.0000000e+00 0.0000000e+00 
1.2990998e-05 -4.7713498e-04 0.0000000e+00 
3.6757515e-04 -2.9980802e-04 0.0000000e+00 
-2.5868358e-04 -7.0927927e-04 0.0000000e+00 
-2.2986250e-04 -5.0280226e-04 0.0000000e+00 
0.0000000e+00 0.0000000e+00 0.0000000e+00 
6.2947557e-04 -7.6237170e-04 0.0000000e+00 
-1.3419722e-04 -1.3143938e-03 0.0000000e+00 
-2.2882673e-04 -1.3383711e-03 0.0000000e+00 
-1.1640324e-04 -7.0196460e-04 0.0000000e+00 
0.0000000e+00 0.0000000e+00 0.0000000e+00 
6.1989273e-04 -2.3871716e-03 0.0000000e+00 
-2.4180430e-04 -2.7761981e-03 0.0000000e+00 
6.1236992e-06 -1.7290846e-03 0.0000000e+00 
7.4991236e-05 -7.0070697e-04 0.0000000e+00 
-4.3452106e-05 -5.2652727e-03 0.0000000e+00 
0.0000000e+00 0.0000000e+00 0.0000000e+00 
2.9895420e-04 -2.6168197e-03 0.0000000e+00 
1.8550758e-04 -1.2762854e-03 0.0000000e+00 
1.4882944e-04 -5.3708348e-04 0.0000000e+00 
-5.2721519e-04 -1.9143230e-03 0.0000000e+00 
0.0000000e+00 0.0000000e+00 0.0000000e+00 
9.4493611e-05 -1.2314331e-03 0.0000000e+00 
1.4539153e-04 -8.3235843e-04 0.0000000e+00 
1.3229750e-04 -3.9770186e-04 0.0000000e+00 
-3.4078775e-04 -9.6231507e-04 0.0000000e+00 
-5.8045080e-05 -8.5517735e-04 0.0000000e+00 
0.0000000e+00 0.0000000e+00 0.0000000e+00 
8.6081687e-05 -6.8539946e-04 0.0000000e+00 
1.1890649e-04 -3.2510125e-04 0.0000000e+00 
-1.2889535e-04 -1.0521173e-03 0.0000000e+00 
-1.1122233e-04 -1.0439090e-03 0.0000000e+00 
0.0000000e+00 0.0000000e+00 0.0000000e+00 
1.2444673e-04 -5.4627185e-04 0.0000000e+00 
1.1236678e-04 -1.9015174e-04 0.0000000e+00 
-1.9064610e-04 -1.7794389e-03 0.0000000e+00 
1.0119744e-04 -7.6914765e-04 0.0000000e+00 
0.0000000e+00 0.0000000e+00 0.0000000e+00 
1.3584389e-04 -2.9644254e-04 0.0000000e+00 
1.0326682e-04 -1.1483517e-04 0.0000000e+00 
-2.6604193e-04 -6.2594062e-04 0.0000000e+00 
6.6450440e-05 -3.3406858e-04 0.0000000e+00 
0.0000000e+00 0.0000000e+00 0.0000000e+00 
1.1830287e-04 -1.5221494e-04 0.0000000e+00 
8.0094251e-05 -5.8540532e-05 0.0000000e+00 
-2.0975634e-04 -2.1287377e-04 0.0000000e+00 
2.8456965e-05 -1.1673432e-04 0.0000000e+00 
0.0000000e+00 0.0000000e+00 0.0000000e+00 
8.3772407e-05 -6.1900493e-05 0.0000000e+00 
5.3477132e-05 -2.3950448e-05 0.0000000e+00 
-1.1959885e-04 -6.9448361e-05 0.0000000e+00 
1.2597418e-05 -2.6160051e-05 0.0000000e+00 
0.0000000e+00 0.0000000e+00 0.0000000e+00 
4.3644632e-05 -9.5851856e-06 0.0000000e+00 
-5.1424180e-05 -5.5369164e-06 0.0000000e+00 
3.0523923e-05 -4.7846002e-06 0.0000000e+00 
2.2829522e-06 7.0690098e-06 0.0000000e+00 
0.0000000e+00 0.0000000e+00 0.0000000e+00 
1.8924062e-05 5.4913939e-06 0.0000000e+00 
-2.0593534e-05 9.3738772e-06 0.0000000e+00 
1.5171665e-05 1.1180125e-06 0.0000000e+00 
1.9820200e-06 1.1782565e-05 0.0000000e+00 
0.0000000e+00 0.0000000e+00 0.0000000e+00 
-2.6401060e-06 1.1240914e-05 0.0000000e+00 
6.1147953e-06 5.5425121e-06 0.0000000e+00 
0.0000000e+00 0.0000000e+00 0.0000000e+00 
3.9996899e-06 1.2791656e-06 0.0000000e+00 
9.6031465e-07 5.7478746e-06 0.0000000e+00 
8.9372321e-07 5.4882494e-06 0.0000000e+00 
0.0000000e+00 0.0000000e+00 0.0000000e+00 
0.0000000e+00 0.0000000e+00 0.0000000e+00 
0.0000000e+00 0.0000000e+00 0.0000000e+00 
0.0000000e+00 0.0000000e+00 0.0000000e+00 
0.0000000e+00 0.0000000e+00 0.0000000e+00 
CELL_DATA 38
FIELD FieldData 0
