# vtk DataFile Version 4.0
vtk output
ASCII
DATASET UNSTRUCTURED_GRID
POINTS 101 float
0.0000000e+00 0.0000000e+00 0.0000000e+00 
0.0000000e+00 2.5000000e-01 0.0000000e+00 
2.5000000e-01 0.0000000e+00 0.0000000e+00 
2.5000000e-01 2.5000000e-01 0.0000000e+00 
0.0000000e+00 5.0000000e-01 0.0000000e+00 
5.0000000e-01 0.0000000e+00 0.0000000e+00 
3.5416666e-01 5.0558227e-01 0.0000000e+00 
6.0416669e-01 2.5558227e-01 0.0000000e+00 
0.0000000e+00 7.5000000e-01 0.0000000e+00 
7.5000000e-01 0.0000000e+00 0.0000000e+00 
2.5000000e-01 7.5000000e-01 0.0000000e+00 
7.0833331e-01 5.1116455e-01 0.0000000e+00 
8.5416669e-01 2.5558227e-01 0.0000000e+00 
6.0416669e-01 7.5558227e-01 0.0000000e+00 
0.0000000e+00 1.0000000e+00 0.0000000e+00 
1.0000000e+00 0.0000000e+00 0.0000000e+00 
2.5000000e-01 1.0000000e+00 0.0000000e+00 
9.7916669e-01 5.3907591e-01 0.0000000e+00 
5.0000000e-01 1.0000000e+00 0.0000000e+00 
8.5416669e-01 7.5558227e-01 0.0000000e+00 
1.1250000e+00 2.8349364e-01 0.0000000e+00 
7.5000000e-01 1.0000000e+00 0.0000000e+00 
1.2500000e+00 0.0000000e+00 0.0000000e+00 
1.1250000e+00 7.8349364e-01 0.0000000e+00 
1.2500000e+00 5.6698728e-01 0.0000000e+00 
1.3750000e+00 2.8349364e-01 0.0000000e+00 
1.0000000e+00 1.0000000e+00 0.0000000e+00 
1.5000000e+00 0.0000000e+00 0.0000000e+00 
1.3750000e+00 7.8349364e-01 0.0000000e+00 
1.2500000e+00 1.0000000e+00 0.0000000e+00 
1.5000000e+00 5.6698728e-01 0.0000000e+00 
1.6250000e+00 2.8349364e-01 0.0000000e+00 
1.7500000e+00 0.0000000e+00 0.0000000e+00 
1.5000000e+00 1.0000000e+00 0.0000000e+00 
1.6250000e+00 7.8349364e-01 0.0000000e+00 
1.7500000e+00 5.6698728e-01 0.0000000e+00 
1.8750000e+00 2.8349364e-01 0.0000000e+00 
2.0000000e+00 0.0000000e+00 0.0000000e+00 
1.7500000e+00 1.0000000e+00 0.0000000e+00 
1.8750000e+00 7.8349364e-01 0.0000000e+00 
2.0000000e+00 5.6698728e-01 0.0000000e+00 
2.1250000e+00 2.8349364e-01 0.0000000e+00 
2.0000000e+00 1.0000000e+00 0.0000000e+00 
2.2500000e+00 0.0000000e+00 0.0000000e+00 
2.1250000e+00 7.8349364e-01 0.0000000e+00 
2.2500000e+00 5.6698728e-01 0.0000000e+00 
2.3750000e+00 2.8349364e-01 0.0000000e+00 
2.2500000e+00 1.0000000e+00 0.0000000e+00 
2.5000000e+00 0.0000000e+00 0.0000000e+00 
2.3750000e+00 7.8349364e-01 0.0000000e+00 
2.5000000e+00 5.6698728e-01 0.0000000e+00 
2.6250000e+00 2.8349364e-01 0.0000000e+00 
2.5000000e+00 1.0000000e+00 0.0000000e+00 
2.6250000e+00 7.8349364e-01 0.0000000e+00 
2.7500000e+00 0.0000000e+00 0.0000000e+00 
2.7500000e+00 5.6698728e-01 0.0000000e+00 
2.8750000e+00 2.8349364e-01 0.0000000e+00 
2.7500000e+00 1.0000000e+00 0.0000000e+00 
2.8750000e+00 7.8349364e-01 0.0000000e+00 
3.0000000e+00 0.0000000e+00 0.0000000e+00 
3.0000000e+00 5.0000000e-01 0.0000000e+00 
3.1250000e+00 2.1650635e-01 0.0000000e+00 
3.0000000e+00 1.0000000e+00 0.0000000e+00 
3.1250000e+00 7.1650636e-01 0.0000000e+00 
3.2500000e+00 0.0000000e+00 0.0000000e+00 
3.2500000e+00 4.3301269e-01 0.0000000e+00 
3.3750000e+00 2.1650635e-01 0.0000000e+00 
3.2500000e+00 1.0000000e+00 0.0000000e+00 
3.3750000e+00 7.1650636e-01 0.0000000e+00 
3.5000000e+00 0.0000000e+00 0.0000000e+00 
3.5000000e+00 4.3301269e-01 0.0000000e+00 
3.6250000e+00 2.1650635e-01 0.0000000e+00 
3.5000000e+00 1.0000000e+00 0.0000000e+00 
3.6250000e+00 7.1650636e-01 0.0000000e+00 
3.7500000e+00 0.0000000e+00 0.0000000e+00 
3.7500000e+00 4.3301269e-01 0.0000000e+00 
3.8750000e+00 2.1650635e-01 0.0000000e+00 
3.7500000e+00 1.0000000e+00 0.0000000e+00 
3.8750000e+00 7.1650636e-01 0.0000000e+00 
4.0000000e+00 0.0000000e+00 0.0000000e+00 
4.0208335e+00 4.6092409e-01 0.0000000e+00 
4.0000000e+00 1.0000000e+00 0.0000000e+00 
4.1458335e+00 2.4441773e-01 0.0000000e+00 
4.1458335e+00 7.4441773e-01 0.0000000e+00 
4.2500000e+00 0.0000000e+00 0.0000000e+00 
4.2916665e+00 4.8883545e-01 0.0000000e+00 
4.2500000e+00 1.0000000e+00 0.0000000e+00 
4.3958335e+00 2.4441773e-01 0.0000000e+00 
4.3958335e+00 7.4441773e-01 0.0000000e+00 
4.5000000e+00 0.0000000e+00 0.0000000e+00 
4.5000000e+00 1.0000000e+00 0.0000000e+00 
4.6458335e+00 4.9441773e-01 0.0000000e+00 
4.7500000e+00 0.0000000e+00 0.0000000e+00 
4.7500000e+00 2.5000000e-01 0.0000000e+00 
4.7500000e+00 7.5000000e-01 0.0000000e+00 
4.7500000e+00 1.0000000e+00 0.0000000e+00 
5.0000000e+00 0.0000000e+00 0.0000000e+00 
5.0000000e+00 2.5000000e-01 0.0000000e+00 
5.0000000e+00 5.0000000e-01 0.0000000e+00 
5.0000000e+00 7.5000000e-01 0.0000000e+00 
5.0000000e+00 1.0000000e+00 0.0000000e+00 

CELLS 38 266
6 0 5 4 2 3 1
6 79 89 85 84 87 82
6 62 52 55 57 53 58
6 85 89 98 87 93 91
6 79 85 75 82 80 76
6 55 52 45 53 49 50
6 75 85 81 80 83 78
6 79 75 69 76 71 74
6 45 52 42 49 47 44
6 55 45 48 50 46 51
6 69 75 65 71 70 66
6 65 75 72 70 73 68
6 69 65 59 66 61 64
6 59 65 55 61 60 56
6 37 48 45 43 46 41
6 100 90 98 95 94 99
6 26 18 11 21 13 19
6 11 18 4 13 10 6
6 26 11 24 19 17 23
6 24 11 15 17 12 20
6 26 24 33 23 28 29
6 33 24 35 28 30 34
6 35 24 27 30 25 31
6 33 35 42 34 39 38
6 42 35 45 39 40 44
6 45 35 37 40 36 41
6 15 27 24 22 25 20
6 96 98 89 97 93 92
6 81 72 75 77 73 78
6 14 4 18 8 10 16
6 5 15 11 9 12 7
6 48 59 55 54 56 51
6 90 81 85 86 83 88
6 27 37 35 32 36 31
6 72 62 65 67 63 68
6 62 55 65 58 60 63
6 90 85 98 88 91 94
6 5 11 4 7 6 3

CELL_TYPES 38
22
22
22
22
22
22
22
22
22
22
22
22
22
22
22
22
22
22
22
22
22
22
22
22
22
22
22
22
22
22
22
22
22
22
22
22
22
22
POINT_DATA 101
FIELD FieldData 2
DISPLACEMENT 3 101  float
0.0000000e+00 0.0000000e+00 0.0000000e+00 
0.0000000e+00 0.0000000e+00 0.0000000e+00 
0.0000000e+00 0.0000000e+00 0.0000000e+00 
-1.1461927e-04 -1.3210575e-04 0.0000000e+00 
0.0000000e+00 0.0000000e+00 0.0000000e+00 
0.0000000e+00 0.0000000e+00 0.0000000e+00 
-1.9430560e-04 -3.4517047e-04 0.0000000e+00 
-1.9151157e-04 -4.1751878e-04 0.0000000e+00 
0.0000000e+00 0.0000000e+00 0.0000000e+00 
0.0000000e+00 0.0000000e+00 0.0000000e+00 
2.9144237e-06 -1.8231697e-04 0.0000000e+00 
-2.2754064e-04 -1.0540043e-03 0.0000000e+00 
-1.1252468e-04 -6.0396735e-04 0.0000000e+00 
-1.5229698e-04 -1.1323969e-03 0.0000000e+00 
0.0000000e+00 0.0000000e+00 0.0000000e+00 
0.0000000e+00 0.0000000e+00 0.0000000e+00 
3.1396904e-04 -2.1663852e-04 0.0000000e+00 
-2.1511134e-05 -1.5923242e-03 0.0000000e+00 
6.0953188e-04 -7.2839507e-04 0.0000000e+00 
-2.4557559e-04 -2.4990628e-03 0.0000000e+00 
7.7824428e-05 -6.8615389e-04 0.0000000e+00 
6.1834307e-04 -2.3499334e-03 0.0000000e+00 
0.0000000e+00 0.0000000e+00 0.0000000e+00 
3.1479145e-04 -2.6058764e-03 0.0000000e+00 
1.9034577e-04 -1.2656050e-03 0.0000000e+00 
1.5015369e-04 -5.3266744e-04 0.0000000e+00 
-9.2566752e-06 -5.1839771e-03 0.0000000e+00 
0.0000000e+00 0.0000000e+00 0.0000000e+00 
1.0800203e-04 -1.2261665e-03 0.0000000e+00 
-5.0180772e-04 -1.9050073e-03 0.0000000e+00 
1.5151945e-04 -8.2950277e-04 0.0000000e+00 
1.3354709e-04 -3.9650250e-04 0.0000000e+00 
0.0000000e+00 0.0000000e+00 0.0000000e+00 
-3.2304120e-04 -9.5933292e-04 0.0000000e+00 
-4.7505131e-05 -8.5435697e-04 0.0000000e+00 
9.2871283e-05 -6.8430847e-04 0.0000000e+00 
1.1936048e-04 -3.2629620e-04 0.0000000e+00 
0.0000000e+00 0.0000000e+00 0.0000000e+00 
-1.1283714e-04 -1.0543515e-03 0.0000000e+00 
-1.0353102e-04 -1.0497906e-03 0.0000000e+00 
1.0462381e-04 -6.3222222e-04 0.0000000e+00 
1.3372098e-04 -2.4959494e-04 0.0000000e+00 
-1.7669263e-04 -1.8106827e-03 0.0000000e+00 
0.0000000e+00 0.0000000e+00 0.0000000e+00 
8.1803293e-05 -8.7200769e-04 0.0000000e+00 
1.2872714e-04 -3.9336918e-04 0.0000000e+00 
1.2450705e-04 -1.5108433e-04 0.0000000e+00 
-2.8179464e-04 -6.0399703e-04 0.0000000e+00 
0.0000000e+00 0.0000000e+00 0.0000000e+00 
2.5824304e-05 -3.3942665e-04 0.0000000e+00 
1.0189859e-04 -1.8295093e-04 0.0000000e+00 
9.4802912e-05 -7.1958842e-05 0.0000000e+00 
-1.9973103e-04 -2.1690293e-04 0.0000000e+00 
-1.8153841e-06 -1.1766541e-04 0.0000000e+00 
0.0000000e+00 0.0000000e+00 0.0000000e+00 
6.5989821e-05 -6.3760905e-05 0.0000000e+00 
6.2906191e-05 -2.6582185e-05 0.0000000e+00 
-1.0767786e-04 -6.8204929e-05 0.0000000e+00 
-3.8356898e-06 -2.5558311e-05 0.0000000e+00 
0.0000000e+00 0.0000000e+00 0.0000000e+00 
4.5136403e-05 -1.2113012e-05 0.0000000e+00 
3.2707649e-05 -5.8060095e-06 0.0000000e+00 
-4.2344451e-05 -9.0575531e-06 0.0000000e+00 
8.2328133e-06 3.8640178e-06 0.0000000e+00 
0.0000000e+00 0.0000000e+00 0.0000000e+00 
2.7560356e-05 3.1306354e-06 0.0000000e+00 
1.7511824e-05 5.4969064e-07 0.0000000e+00 
-1.6441683e-05 7.8464300e-06 0.0000000e+00 
7.0096698e-06 1.1133685e-05 0.0000000e+00 
0.0000000e+00 0.0000000e+00 0.0000000e+00 
1.5129271e-05 6.1152232e-06 0.0000000e+00 
8.9016539e-06 1.8082164e-06 0.0000000e+00 
-1.5505954e-07 1.1134261e-05 0.0000000e+00 
6.0024204e-06 9.6935682e-06 0.0000000e+00 
0.0000000e+00 0.0000000e+00 0.0000000e+00 
7.7034729e-06 5.2256810e-06 0.0000000e+00 
4.3080017e-06 1.6474194e-06 0.0000000e+00 
4.4023382e-06 8.6154623e-06 0.0000000e+00 
4.9965688e-06 6.5109666e-06 0.0000000e+00 
0.0000000e+00 0.0000000e+00 0.0000000e+00 
4.2628703e-06 3.2098840e-06 0.0000000e+00 
6.0457010e-06 5.5542228e-06 0.0000000e+00 
2.1987037e-06 1.0348368e-06 0.0000000e+00 
3.9352694e-06 3.5065179e-06 0.0000000e+00 
0.0000000e+00 0.0000000e+00 0.0000000e+00 
2.3448476e-06 1.6361420e-06 0.0000000e+00 
4.9357213e-06 3.0757317e-06 0.0000000e+00 
1.1013994e-06 4.7001680e-07 0.0000000e+00 
2.7988474e-06 1.6583755e-06 0.0000000e+00 
0.0000000e+00 0.0000000e+00 0.0000000e+00 
3.4252839e-06 1.5455254e-06 0.0000000e+00 
1.0202997e-06 3.0506632e-07 0.0000000e+00 
0.0000000e+00 0.0000000e+00 0.0000000e+00 
3.5725722e-07 -3.9568362e-09 0.0000000e+00 
1.1433626e-06 3.0512916e-07 0.0000000e+00 
1.6969773e-06 6.1823351e-07 0.0000000e+00 
0.0000000e+00 0.0000000e+00 0.0000000e+00 
0.0000000e+00 0.0000000e+00 0.0000000e+00 
0.0000000e+00 0.0000000e+00 0.0000000e+00 
0.0000000e+00 0.0000000e+00 0.0000000e+00 
0.0000000e+00 0.0000000e+00 0.0000000e+00 
TOTAL_DISPLACEMENT 3 101  float
0.0000000e+00 0.0000000e+00 0.0000000e+00 
0.0000000e+00 0.0000000e+00 0.0000000e+00 
0.0000000e+00 0.0000000e+00 0.0000000e+00 
-1.1461927e-04 -1.3210575e-04 0.0000000e+00 
0.0000000e+00 0.0000000e+00 0.0000000e+00 
0.0000000e+00 0.0000000e+00 0.0000000e+00 
-1.9430560e-04 -3.4517047e-04 0.0000000e+00 
-1.9151157e-04 -4.1751878e-04 0.0000000e+00 
0.0000000e+00 0.0000000e+00 0.0000000e+00 
0.0000000e+00 0.0000000e+00 0.0000000e+00 
2.9144237e-06 -1.8231697e-04 0.0000000e+00 
-2.2754064e-04 -1.0540043e-03 0.0000000e+00 
-1.1252468e-04 -6.0396735e-04 0.0000000e+00 
-1.5229698e-04 -1.1323969e-03 0.0000000e+00 
0.0000000e+00 0.0000000e+00 0.0000000e+00 
0.0000000e+00 0.0000000e+00 0.0000000e+00 
3.1396904e-04 -2.1663852e-04 0.0000000e+00 
-2.1511134e-05 -1.5923242e-03 0.0000000e+00 
6.0953188e-04 -7.2839507e-04 0.0000000e+00 
-2.4557559e-04 -2.4990628e-03 0.0000000e+00 
7.7824428e-05 -6.8615389e-04 0.0000000e+00 
6.1834307e-04 -2.3499334e-03 0.0000000e+00 
0.0000000e+00 0.0000000e+00 0.0000000e+00 
3.1479145e-04 -2.6058764e-03 0.0000000e+00 
1.9034577e-04 -1.2656050e-03 0.0000000e+00 
1.5015369e-04 -5.3266744e-04 0.0000000e+00 
-9.2566752e-06 -5.1839771e-03 0.0000000e+00 
0.0000000e+00 0.0000000e+00 0.0000000e+00 
1.0800203e-04 -1.2261665e-03 0.0000000e+00 
-5.0180772e-04 -1.9050073e-03 0.0000000e+00 
1.5151945e-04 -8.2950277e-04 0.0000000e+00 
1.3354709e-04 -3.9650250e-04 0.0000000e+00 
0.0000000e+00 0.0000000e+00 0.0000000e+00 
-3.2304120e-04 -9.5933292e-04 0.0000000e+00 
-4.7505131e-05 -8.5435697e-04 0.0000000e+00 
9.2871283e-05 -6.8430847e-04 0.0000000e+00 
1.1936048e-04 -3.2629620e-04 0.0000000e+00 
0.0000000e+00 0.0000000e+00 0.0000000e+00 
-1.1283714e-04 -1.0543515e-03 0.0000000e+00 
-1.0353102e-04 -1.0497906e-03 0.0000000e+00 
1.0462381e-04 -6.3222222e-04 0.0000000e+00 
1.3372098e-04 -2.4959494e-04 0.0000000e+00 
-1.7669263e-04 -1.8106827e-03 0.0000000e+00 
0.0000000e+00 0.0000000e+00 0.0000000e+00 
8.1803293e-05 -8.7200769e-04 0.0000000e+00 
1.2872714e-04 -3.9336918e-04 0.0000000e+00 
1.2450705e-04 -1.5108433e-04 0.0000000e+00 
-2.8179464e-04 -6.0399703e-04 0.0000000e+00 
0.0000000e+00 0.0000000e+00 0.0000000e+00 
2.5824304e-05 -3.3942665e-04 0.0000000e+00 
1.0189859e-04 -1.8295093e-04 0.0000000e+00 
9.4802912e-05 -7.1958842e-05 0.0000000e+00 
-1.9973103e-04 -2.1690293e-04 0.0000000e+00 
-1.8153841e-06 -1.1766541e-04 0.0000000e+00 
0.0000000e+00 0.0000000e+00 0.0000000e+00 
6.5989821e-05 -6.3760905e-05 0.0000000e+00 
6.2906191e-05 -2.6582185e-05 0.0000000e+00 
-1.0767786e-04 -6.8204929e-05 0.0000000e+00 
-3.8356898e-06 -2.5558311e-05 0.0000000e+00 
0.0000000e+00 0.0000000e+00 0.0000000e+00 
4.5136403e-05 -1.2113012e-05 0.0000000e+00 
3.2707649e-05 -5.8060095e-06 0.0000000e+00 
-4.2344451e-05 -9.0575531e-06 0.0000000e+00 
8.2328133e-06 3.8640178e-06 0.0000000e+00 
0.0000000e+00 0.0000000e+00 0.0000000e+00 
2.7560356e-05 3.1306354e-06 0.0000000e+00 
1.7511824e-05 5.4969064e-07 0.0000000e+00 
-1.6441683e-05 7.8464300e-06 0.0000000e+00 
7.0096698e-06 1.1133685e-05 0.0000000e+00 
0.0000000e+00 0.0000000e+00 0.0000000e+00 
1.5129271e-05 6.1152232e-06 0.0000000e+00 
8.9016539e-06 1.8082164e-06 0.0000000e+00 
-1.5505954e-07 1.1134261e-05 0.0000000e+00 
6.0024204e-06 9.6935682e-06 0.0000000e+00 
0.0000000e+00 0.0000000e+00 0.0000000e+00 
7.7034729e-06 5.2256810e-06 0.0000000e+00 
4.3080017e-06 1.6474194e-06 0.0000000e+00 
4.4023382e-06 8.6154623e-06 0.0000000e+00 
4.9965688e-06 6.5109666e-06 0.0000000e+00 
0.0000000e+00 0.0000000e+00 0.0000000e+00 
4.2628703e-06 3.2098840e-06 0.0000000e+00 
6.0457010e-06 5.5542228e-06 0.0000000e+00 
2.1987037e-06 1.0348368e-06 0.0000000e+00 
3.9352694e-06 3.5065179e-06 0.0000000e+00 
0.0000000e+00 0.0000000e+00 0.0000000e+00 
2.3448476e-06 1.6361420e-06 0.0000000e+00 
4.9357213e-06 3.0757317e-06 0.0000000e+00 
1.1013994e-06 4.7001680e-07 0.0000000e+00 
2.7988474e-06 1.6583755e-06 0.0000000e+00 
0.0000000e+00 0.0000000e+00 0.0000000e+00 
3.4252839e-06 1.5455254e-06 0.0000000e+00 
1.0202997e-06 3.0506632e-07 0.0000000e+00 
0.0000000e+00 0.0000000e+00 0.0000000e+00 
3.5725722e-07 -3.9568362e-09 0.0000000e+00 
1.1433626e-06 3.0512916e-07 0.0000000e+00 
1.6969773e-06 6.1823351e-07 0.0000000e+00 
0.0000000e+00 0.0000000e+00 0.0000000e+00 
0.0000000e+00 0.0000000e+00 0.0000000e+00 
0.0000000e+00 0.0000000e+00 0.0000000e+00 
0.0000000e+00 0.0000000e+00 0.0000000e+00 
0.0000000e+00 0.0000000e+00 0.0000000e+00 
CELL_DATA 38
FIELD FieldData 0
