# vtk DataFile Version 4.0
vtk output
ASCII
DATASET UNSTRUCTURED_GRID
POINTS 101 float
0.0000000e+00 0.0000000e+00 0.0000000e+00 
0.0000000e+00 2.5000000e-01 0.0000000e+00 
2.5000000e-01 0.0000000e+00 0.0000000e+00 
2.5000000e-01 2.5000000e-01 0.0000000e+00 
0.0000000e+00 5.0000000e-01 0.0000000e+00 
5.0000000e-01 0.0000000e+00 0.0000000e+00 
3.5416666e-01 5.0558227e-01 0.0000000e+00 
6.0416669e-01 2.5558227e-01 0.0000000e+00 
0.0000000e+00 7.5000000e-01 0.0000000e+00 
7.5000000e-01 0.0000000e+00 0.0000000e+00 
2.5000000e-01 7.5000000e-01 0.0000000e+00 
7.0833331e-01 5.1116455e-01 0.0000000e+00 
8.5416669e-01 2.5558227e-01 0.0000000e+00 
6.0416669e-01 7.5558227e-01 0.0000000e+00 
0.0000000e+00 1.0000000e+00 0.0000000e+00 
1.0000000e+00 0.0000000e+00 0.0000000e+00 
2.5000000e-01 1.0000000e+00 0.0000000e+00 
9.7916669e-01 5.3907591e-01 0.0000000e+00 
5.0000000e-01 1.0000000e+00 0.0000000e+00 
8.5416669e-01 7.5558227e-01 0.0000000e+00 
1.1250000e+00 2.8349364e-01 0.0000000e+00 
7.5000000e-01 1.0000000e+00 0.0000000e+00 
1.2500000e+00 0.0000000e+00 0.0000000e+00 
1.1250000e+00 7.8349364e-01 0.0000000e+00 
1.2500000e+00 5.6698728e-01 0.0000000e+00 
1.3750000e+00 2.8349364e-01 0.0000000e+00 
1.0000000e+00 1.0000000e+00 0.0000000e+00 
1.5000000e+00 0.0000000e+00 0.0000000e+00 
1.3750000e+00 7.8349364e-01 0.0000000e+00 
1.2500000e+00 1.0000000e+00 0.0000000e+00 
1.5000000e+00 5.6698728e-01 0.0000000e+00 
1.6250000e+00 2.8349364e-01 0.0000000e+00 
1.7500000e+00 0.0000000e+00 0.0000000e+00 
1.5000000e+00 1.0000000e+00 0.0000000e+00 
1.6250000e+00 7.8349364e-01 0.0000000e+00 
1.7500000e+00 5.6698728e-01 0.0000000e+00 
1.8750000e+00 2.8349364e-01 0.0000000e+00 
2.0000000e+00 0.0000000e+00 0.0000000e+00 
1.7500000e+00 1.0000000e+00 0.0000000e+00 
1.8750000e+00 7.8349364e-01 0.0000000e+00 
2.0000000e+00 5.6698728e-01 0.0000000e+00 
2.1250000e+00 2.8349364e-01 0.0000000e+00 
2.0000000e+00 1.0000000e+00 0.0000000e+00 
2.2500000e+00 0.0000000e+00 0.0000000e+00 
2.1250000e+00 7.8349364e-01 0.0000000e+00 
2.2500000e+00 5.6698728e-01 0.0000000e+00 
2.3750000e+00 2.8349364e-01 0.0000000e+00 
2.2500000e+00 1.0000000e+00 0.0000000e+00 
2.5000000e+00 0.0000000e+00 0.0000000e+00 
2.3750000e+00 7.8349364e-01 0.0000000e+00 
2.5000000e+00 5.6698728e-01 0.0000000e+00 
2.6250000e+00 2.8349364e-01 0.0000000e+00 
2.5000000e+00 1.0000000e+00 0.0000000e+00 
2.6250000e+00 7.8349364e-01 0.0000000e+00 
2.7500000e+00 0.0000000e+00 0.0000000e+00 
2.7500000e+00 5.6698728e-01 0.0000000e+00 
2.8750000e+00 2.8349364e-01 0.0000000e+00 
2.7500000e+00 1.0000000e+00 0.0000000e+00 
2.8750000e+00 7.8349364e-01 0.0000000e+00 
3.0000000e+00 0.0000000e+00 0.0000000e+00 
3.0000000e+00 5.0000000e-01 0.0000000e+00 
3.1250000e+00 2.1650635e-01 0.0000000e+00 
3.0000000e+00 1.0000000e+00 0.0000000e+00 
3.1250000e+00 7.1650636e-01 0.0000000e+00 
3.2500000e+00 0.0000000e+00 0.0000000e+00 
3.2500000e+00 4.3301269e-01 0.0000000e+00 
3.3750000e+00 2.1650635e-01 0.0000000e+00 
3.2500000e+00 1.0000000e+00 0.0000000e+00 
3.3750000e+00 7.1650636e-01 0.0000000e+00 
3.5000000e+00 0.0000000e+00 0.0000000e+00 
3.5000000e+00 4.3301269e-01 0.0000000e+00 
3.6250000e+00 2.1650635e-01 0.0000000e+00 
3.5000000e+00 1.0000000e+00 0.0000000e+00 
3.6250000e+00 7.1650636e-01 0.0000000e+00 
3.7500000e+00 0.0000000e+00 0.0000000e+00 
3.7500000e+00 4.3301269e-01 0.0000000e+00 
3.8750000e+00 2.1650635e-01 0.0000000e+00 
3.7500000e+00 1.0000000e+00 0.0000000e+00 
3.8750000e+00 7.1650636e-01 0.0000000e+00 
4.0000000e+00 0.0000000e+00 0.0000000e+00 
4.0208335e+00 4.6092409e-01 0.0000000e+00 
4.0000000e+00 1.0000000e+00 0.0000000e+00 
4.1458335e+00 2.4441773e-01 0.0000000e+00 
4.1458335e+00 7.4441773e-01 0.0000000e+00 
4.2500000e+00 0.0000000e+00 0.0000000e+00 
4.2916665e+00 4.8883545e-01 0.0000000e+00 
4.2500000e+00 1.0000000e+00 0.0000000e+00 
4.3958335e+00 2.4441773e-01 0.0000000e+00 
4.3958335e+00 7.4441773e-01 0.0000000e+00 
4.5000000e+00 0.0000000e+00 0.0000000e+00 
4.5000000e+00 1.0000000e+00 0.0000000e+00 
4.6458335e+00 4.9441773e-01 0.0000000e+00 
4.7500000e+00 0.0000000e+00 0.0000000e+00 
4.7500000e+00 2.5000000e-01 0.0000000e+00 
4.7500000e+00 7.5000000e-01 0.0000000e+00 
4.7500000e+00 1.0000000e+00 0.0000000e+00 
5.0000000e+00 0.0000000e+00 0.0000000e+00 
5.0000000e+00 2.5000000e-01 0.0000000e+00 
5.0000000e+00 5.0000000e-01 0.0000000e+00 
5.0000000e+00 7.5000000e-01 0.0000000e+00 
5.0000000e+00 1.0000000e+00 0.0000000e+00 

CELLS 38 266
6 0 5 4 2 3 1
6 79 89 85 84 87 82
6 62 52 55 57 53 58
6 85 89 98 87 93 91
6 79 85 75 82 80 76
6 55 52 45 53 49 50
6 75 85 81 80 83 78
6 79 75 69 76 71 74
6 45 52 42 49 47 44
6 55 45 48 50 46 51
6 69 75 65 71 70 66
6 65 75 72 70 73 68
6 69 65 59 66 61 64
6 59 65 55 61 60 56
6 37 48 45 43 46 41
6 100 90 98 95 94 99
6 26 18 11 21 13 19
6 11 18 4 13 10 6
6 26 11 24 19 17 23
6 24 11 15 17 12 20
6 26 24 33 23 28 29
6 33 24 35 28 30 34
6 35 24 27 30 25 31
6 33 35 42 34 39 38
6 42 35 45 39 40 44
6 45 35 37 40 36 41
6 15 27 24 22 25 20
6 96 98 89 97 93 92
6 81 72 75 77 73 78
6 14 4 18 8 10 16
6 5 15 11 9 12 7
6 48 59 55 54 56 51
6 90 81 85 86 83 88
6 27 37 35 32 36 31
6 72 62 65 67 63 68
6 62 55 65 58 60 63
6 90 85 98 88 91 94
6 5 11 4 7 6 3

CELL_TYPES 38
22
22
22
22
22
22
22
22
22
22
22
22
22
22
22
22
22
22
22
22
22
22
22
22
22
22
22
22
22
22
22
22
22
22
22
22
22
22
POINT_DATA 101
FIELD FieldData 2
DISPLACEMENT 3 101  float
0.0000000e+00 0.0000000e+00 0.0000000e+00 
0.0000000e+00 0.0000000e+00 0.0000000e+00 
0.0000000e+00 0.0000000e+00 0.0000000e+00 
-9.4346295e-05 -3.5609750e-04 0.0000000e+00 
0.0000000e+00 0.0000000e+00 0.0000000e+00 
0.0000000e+00 0.0000000e+00 0.0000000e+00 
-9.4061674e-05 -1.0288977e-03 0.0000000e+00 
3.7719677e-05 -5.0935632e-04 0.0000000e+00 
0.0000000e+00 0.0000000e+00 0.0000000e+00 
0.0000000e+00 0.0000000e+00 0.0000000e+00 
-2.1103292e-04 -1.4290200e-03 0.0000000e+00 
1.6516632e-04 -1.1014906e-03 0.0000000e+00 
1.2266541e-04 -4.5360517e-04 0.0000000e+00 
3.3624945e-04 -2.3873791e-03 0.0000000e+00 
0.0000000e+00 0.0000000e+00 0.0000000e+00 
0.0000000e+00 0.0000000e+00 0.0000000e+00 
5.3498591e-04 -1.7942408e-03 0.0000000e+00 
1.7379799e-04 -7.8897004e-04 0.0000000e+00 
1.1315319e-04 -4.6522552e-03 0.0000000e+00 
1.9653661e-04 -1.2005011e-03 0.0000000e+00 
1.2887674e-04 -3.8608120e-04 0.0000000e+00 
-3.1508086e-04 -1.7902073e-03 0.0000000e+00 
0.0000000e+00 0.0000000e+00 0.0000000e+00 
-7.8523590e-06 -8.2666025e-04 0.0000000e+00 
1.1244397e-04 -6.7485718e-04 0.0000000e+00 
1.1994535e-04 -3.2377781e-04 0.0000000e+00 
-2.5079443e-04 -9.0762763e-04 0.0000000e+00 
0.0000000e+00 0.0000000e+00 0.0000000e+00 
-7.2613046e-05 -1.0427532e-03 0.0000000e+00 
-5.8429174e-05 -1.0352745e-03 0.0000000e+00 
1.2035656e-04 -6.3111942e-04 0.0000000e+00 
1.3685781e-04 -2.5015412e-04 0.0000000e+00 
0.0000000e+00 0.0000000e+00 0.0000000e+00 
-1.3918080e-04 -1.8059271e-03 0.0000000e+00 
1.0543445e-04 -8.7234500e-04 0.0000000e+00 
1.4165087e-04 -3.9572985e-04 0.0000000e+00 
1.2869171e-04 -1.5254201e-04 0.0000000e+00 
0.0000000e+00 0.0000000e+00 0.0000000e+00 
-2.5603097e-04 -6.0432852e-04 0.0000000e+00 
4.3578944e-05 -3.4197103e-04 0.0000000e+00 
1.1300150e-04 -1.8558235e-04 0.0000000e+00 
9.8969649e-05 -7.3342097e-05 0.0000000e+00 
-1.8225664e-04 -2.1840358e-04 0.0000000e+00 
0.0000000e+00 0.0000000e+00 0.0000000e+00 
1.1505757e-05 -1.2004892e-04 0.0000000e+00 
7.5651536e-05 -6.5678352e-05 0.0000000e+00 
6.6198285e-05 -2.7810809e-05 0.0000000e+00 
-9.5144409e-05 -6.9796566e-05 0.0000000e+00 
0.0000000e+00 0.0000000e+00 0.0000000e+00 
6.1016585e-06 -2.7758399e-05 0.0000000e+00 
4.4663324e-05 -1.2279046e-05 0.0000000e+00 
4.0277351e-05 -6.6612038e-06 0.0000000e+00 
-3.3489108e-05 -9.6103913e-06 0.0000000e+00 
7.2487856e-06 3.5079929e-06 0.0000000e+00 
0.0000000e+00 0.0000000e+00 0.0000000e+00 
2.5230516e-05 5.7048928e-06 0.0000000e+00 
2.3356975e-05 9.2757483e-07 0.0000000e+00 
-8.4720277e-06 7.6390024e-06 0.0000000e+00 
9.0023868e-06 1.1067325e-05 0.0000000e+00 
0.0000000e+00 0.0000000e+00 0.0000000e+00 
1.7567267e-05 6.6792641e-06 0.0000000e+00 
1.1301088e-05 1.4551381e-06 0.0000000e+00 
5.4531683e-06 1.0297646e-05 0.0000000e+00 
1.0153992e-05 9.1284819e-06 0.0000000e+00 
0.0000000e+00 0.0000000e+00 0.0000000e+00 
1.1187307e-05 4.9226433e-06 0.0000000e+00 
6.1040960e-06 1.4022239e-06 0.0000000e+00 
8.6376222e-06 8.3218765e-06 0.0000000e+00 
8.5698521e-06 6.3071611e-06 0.0000000e+00 
0.0000000e+00 0.0000000e+00 0.0000000e+00 
7.0614783e-06 2.9541227e-06 0.0000000e+00 
3.4810791e-06 7.9411643e-07 0.0000000e+00 
9.4043726e-06 5.5078312e-06 0.0000000e+00 
6.9206994e-06 3.6034771e-06 0.0000000e+00 
0.0000000e+00 0.0000000e+00 0.0000000e+00 
4.4957824e-06 1.5998455e-06 0.0000000e+00 
2.0928585e-06 3.6554511e-07 0.0000000e+00 
7.8661642e-06 3.2139108e-06 0.0000000e+00 
5.3707722e-06 1.7825711e-06 0.0000000e+00 
0.0000000e+00 0.0000000e+00 0.0000000e+00 
3.1923325e-06 5.7889213e-07 0.0000000e+00 
6.1004557e-06 1.6841479e-06 0.0000000e+00 
1.4706756e-06 3.2670243e-08 0.0000000e+00 
3.9772558e-06 6.8660728e-07 0.0000000e+00 
0.0000000e+00 0.0000000e+00 0.0000000e+00 
2.2086131e-06 6.8852181e-08 0.0000000e+00 
4.2724373e-06 8.1848873e-07 0.0000000e+00 
9.5150085e-07 -1.3123217e-07 0.0000000e+00 
2.6806902e-06 1.7801261e-07 0.0000000e+00 
0.0000000e+00 0.0000000e+00 0.0000000e+00 
2.6497451e-06 4.1425361e-07 0.0000000e+00 
1.0520732e-06 -1.9079256e-07 0.0000000e+00 
0.0000000e+00 0.0000000e+00 0.0000000e+00 
3.9108602e-07 -1.6997403e-07 0.0000000e+00 
1.0391366e-06 -3.6861021e-08 0.0000000e+00 
1.2441534e-06 2.2397229e-07 0.0000000e+00 
0.0000000e+00 0.0000000e+00 0.0000000e+00 
0.0000000e+00 0.0000000e+00 0.0000000e+00 
0.0000000e+00 0.0000000e+00 0.0000000e+00 
0.0000000e+00 0.0000000e+00 0.0000000e+00 
0.0000000e+00 0.0000000e+00 0.0000000e+00 
TOTAL_DISPLACEMENT 3 101  float
0.0000000e+00 0.0000000e+00 0.0000000e+00 
0.0000000e+00 0.0000000e+00 0.0000000e+00 
0.0000000e+00 0.0000000e+00 0.0000000e+00 
-9.4346295e-05 -3.5609750e-04 0.0000000e+00 
0.0000000e+00 0.0000000e+00 0.0000000e+00 
0.0000000e+00 0.0000000e+00 0.0000000e+00 
-9.4061674e-05 -1.0288977e-03 0.0000000e+00 
3.7719677e-05 -5.0935632e-04 0.0000000e+00 
0.0000000e+00 0.0000000e+00 0.0000000e+00 
0.0000000e+00 0.0000000e+00 0.0000000e+00 
-2.1103292e-04 -1.4290200e-03 0.0000000e+00 
1.6516632e-04 -1.1014906e-03 0.0000000e+00 
1.2266541e-04 -4.5360517e-04 0.0000000e+00 
3.3624945e-04 -2.3873791e-03 0.0000000e+00 
0.0000000e+00 0.0000000e+00 0.0000000e+00 
0.0000000e+00 0.0000000e+00 0.0000000e+00 
5.3498591e-04 -1.7942408e-03 0.0000000e+00 
1.7379799e-04 -7.8897004e-04 0.0000000e+00 
1.1315319e-04 -4.6522552e-03 0.0000000e+00 
1.9653661e-04 -1.2005011e-03 0.0000000e+00 
1.2887674e-04 -3.8608120e-04 0.0000000e+00 
-3.1508086e-04 -1.7902073e-03 0.0000000e+00 
0.0000000e+00 0.0000000e+00 0.0000000e+00 
-7.8523590e-06 -8.2666025e-04 0.0000000e+00 
1.1244397e-04 -6.7485718e-04 0.0000000e+00 
1.1994535e-04 -3.2377781e-04 0.0000000e+00 
-2.5079443e-04 -9.0762763e-04 0.0000000e+00 
0.0000000e+00 0.0000000e+00 0.0000000e+00 
-7.2613046e-05 -1.0427532e-03 0.0000000e+00 
-5.8429174e-05 -1.0352745e-03 0.0000000e+00 
1.2035656e-04 -6.3111942e-04 0.0000000e+00 
1.3685781e-04 -2.5015412e-04 0.0000000e+00 
0.0000000e+00 0.0000000e+00 0.0000000e+00 
-1.3918080e-04 -1.8059271e-03 0.0000000e+00 
1.0543445e-04 -8.7234500e-04 0.0000000e+00 
1.4165087e-04 -3.9572985e-04 0.0000000e+00 
1.2869171e-04 -1.5254201e-04 0.0000000e+00 
0.0000000e+00 0.0000000e+00 0.0000000e+00 
-2.5603097e-04 -6.0432852e-04 0.0000000e+00 
4.3578944e-05 -3.4197103e-04 0.0000000e+00 
1.1300150e-04 -1.8558235e-04 0.0000000e+00 
9.8969649e-05 -7.3342097e-05 0.0000000e+00 
-1.8225664e-04 -2.1840358e-04 0.0000000e+00 
0.0000000e+00 0.0000000e+00 0.0000000e+00 
1.1505757e-05 -1.2004892e-04 0.0000000e+00 
7.5651536e-05 -6.5678352e-05 0.0000000e+00 
6.6198285e-05 -2.7810809e-05 0.0000000e+00 
-9.5144409e-05 -6.9796566e-05 0.0000000e+00 
0.0000000e+00 0.0000000e+00 0.0000000e+00 
6.1016585e-06 -2.7758399e-05 0.0000000e+00 
4.4663324e-05 -1.2279046e-05 0.0000000e+00 
4.0277351e-05 -6.6612038e-06 0.0000000e+00 
-3.3489108e-05 -9.6103913e-06 0.0000000e+00 
7.2487856e-06 3.5079929e-06 0.0000000e+00 
0.0000000e+00 0.0000000e+00 0.0000000e+00 
2.5230516e-05 5.7048928e-06 0.0000000e+00 
2.3356975e-05 9.2757483e-07 0.0000000e+00 
-8.4720277e-06 7.6390024e-06 0.0000000e+00 
9.0023868e-06 1.1067325e-05 0.0000000e+00 
0.0000000e+00 0.0000000e+00 0.0000000e+00 
1.7567267e-05 6.6792641e-06 0.0000000e+00 
1.1301088e-05 1.4551381e-06 0.0000000e+00 
5.4531683e-06 1.0297646e-05 0.0000000e+00 
1.0153992e-05 9.1284819e-06 0.0000000e+00 
0.0000000e+00 0.0000000e+00 0.0000000e+00 
1.1187307e-05 4.9226433e-06 0.0000000e+00 
6.1040960e-06 1.4022239e-06 0.0000000e+00 
8.6376222e-06 8.3218765e-06 0.0000000e+00 
8.5698521e-06 6.3071611e-06 0.0000000e+00 
0.0000000e+00 0.0000000e+00 0.0000000e+00 
7.0614783e-06 2.9541227e-06 0.0000000e+00 
3.4810791e-06 7.9411643e-07 0.0000000e+00 
9.4043726e-06 5.5078312e-06 0.0000000e+00 
6.9206994e-06 3.6034771e-06 0.0000000e+00 
0.0000000e+00 0.0000000e+00 0.0000000e+00 
4.4957824e-06 1.5998455e-06 0.0000000e+00 
2.0928585e-06 3.6554511e-07 0.0000000e+00 
7.8661642e-06 3.2139108e-06 0.0000000e+00 
5.3707722e-06 1.7825711e-06 0.0000000e+00 
0.0000000e+00 0.0000000e+00 0.0000000e+00 
3.1923325e-06 5.7889213e-07 0.0000000e+00 
6.1004557e-06 1.6841479e-06 0.0000000e+00 
1.4706756e-06 3.2670243e-08 0.0000000e+00 
3.9772558e-06 6.8660728e-07 0.0000000e+00 
0.0000000e+00 0.0000000e+00 0.0000000e+00 
2.2086131e-06 6.8852181e-08 0.0000000e+00 
4.2724373e-06 8.1848873e-07 0.0000000e+00 
9.5150085e-07 -1.3123217e-07 0.0000000e+00 
2.6806902e-06 1.7801261e-07 0.0000000e+00 
0.0000000e+00 0.0000000e+00 0.0000000e+00 
2.6497451e-06 4.1425361e-07 0.0000000e+00 
1.0520732e-06 -1.9079256e-07 0.0000000e+00 
0.0000000e+00 0.0000000e+00 0.0000000e+00 
3.9108602e-07 -1.6997403e-07 0.0000000e+00 
1.0391366e-06 -3.6861021e-08 0.0000000e+00 
1.2441534e-06 2.2397229e-07 0.0000000e+00 
0.0000000e+00 0.0000000e+00 0.0000000e+00 
0.0000000e+00 0.0000000e+00 0.0000000e+00 
0.0000000e+00 0.0000000e+00 0.0000000e+00 
0.0000000e+00 0.0000000e+00 0.0000000e+00 
0.0000000e+00 0.0000000e+00 0.0000000e+00 
CELL_DATA 38
FIELD FieldData 0
