# vtk DataFile Version 4.0
vtk output
ASCII
DATASET UNSTRUCTURED_GRID
POINTS 101 float
0.0000000e+00 0.0000000e+00 0.0000000e+00 
0.0000000e+00 2.5000000e-01 0.0000000e+00 
2.5000000e-01 0.0000000e+00 0.0000000e+00 
2.5000000e-01 2.5000000e-01 0.0000000e+00 
0.0000000e+00 5.0000000e-01 0.0000000e+00 
5.0000000e-01 0.0000000e+00 0.0000000e+00 
3.5416666e-01 5.0558227e-01 0.0000000e+00 
6.0416669e-01 2.5558227e-01 0.0000000e+00 
0.0000000e+00 7.5000000e-01 0.0000000e+00 
7.5000000e-01 0.0000000e+00 0.0000000e+00 
2.5000000e-01 7.5000000e-01 0.0000000e+00 
7.0833331e-01 5.1116455e-01 0.0000000e+00 
8.5416669e-01 2.5558227e-01 0.0000000e+00 
6.0416669e-01 7.5558227e-01 0.0000000e+00 
0.0000000e+00 1.0000000e+00 0.0000000e+00 
1.0000000e+00 0.0000000e+00 0.0000000e+00 
2.5000000e-01 1.0000000e+00 0.0000000e+00 
9.7916669e-01 5.3907591e-01 0.0000000e+00 
5.0000000e-01 1.0000000e+00 0.0000000e+00 
8.5416669e-01 7.5558227e-01 0.0000000e+00 
1.1250000e+00 2.8349364e-01 0.0000000e+00 
7.5000000e-01 1.0000000e+00 0.0000000e+00 
1.2500000e+00 0.0000000e+00 0.0000000e+00 
1.1250000e+00 7.8349364e-01 0.0000000e+00 
1.2500000e+00 5.6698728e-01 0.0000000e+00 
1.3750000e+00 2.8349364e-01 0.0000000e+00 
1.0000000e+00 1.0000000e+00 0.0000000e+00 
1.5000000e+00 0.0000000e+00 0.0000000e+00 
1.3750000e+00 7.8349364e-01 0.0000000e+00 
1.2500000e+00 1.0000000e+00 0.0000000e+00 
1.5000000e+00 5.6698728e-01 0.0000000e+00 
1.6250000e+00 2.8349364e-01 0.0000000e+00 
1.7500000e+00 0.0000000e+00 0.0000000e+00 
1.5000000e+00 1.0000000e+00 0.0000000e+00 
1.6250000e+00 7.8349364e-01 0.0000000e+00 
1.7500000e+00 5.6698728e-01 0.0000000e+00 
1.8750000e+00 2.8349364e-01 0.0000000e+00 
2.0000000e+00 0.0000000e+00 0.0000000e+00 
1.7500000e+00 1.0000000e+00 0.0000000e+00 
1.8750000e+00 7.8349364e-01 0.0000000e+00 
2.0000000e+00 5.6698728e-01 0.0000000e+00 
2.1250000e+00 2.8349364e-01 0.0000000e+00 
2.0000000e+00 1.0000000e+00 0.0000000e+00 
2.2500000e+00 0.0000000e+00 0.0000000e+00 
2.1250000e+00 7.8349364e-01 0.0000000e+00 
2.2500000e+00 5.6698728e-01 0.0000000e+00 
2.3750000e+00 2.8349364e-01 0.0000000e+00 
2.2500000e+00 1.0000000e+00 0.0000000e+00 
2.5000000e+00 0.0000000e+00 0.0000000e+00 
2.3750000e+00 7.8349364e-01 0.0000000e+00 
2.5000000e+00 5.6698728e-01 0.0000000e+00 
2.6250000e+00 2.8349364e-01 0.0000000e+00 
2.5000000e+00 1.0000000e+00 0.0000000e+00 
2.6250000e+00 7.8349364e-01 0.0000000e+00 
2.7500000e+00 0.0000000e+00 0.0000000e+00 
2.7500000e+00 5.6698728e-01 0.0000000e+00 
2.8750000e+00 2.8349364e-01 0.0000000e+00 
2.7500000e+00 1.0000000e+00 0.0000000e+00 
2.8750000e+00 7.8349364e-01 0.0000000e+00 
3.0000000e+00 0.0000000e+00 0.0000000e+00 
3.0000000e+00 5.0000000e-01 0.0000000e+00 
3.1250000e+00 2.1650635e-01 0.0000000e+00 
3.0000000e+00 1.0000000e+00 0.0000000e+00 
3.1250000e+00 7.1650636e-01 0.0000000e+00 
3.2500000e+00 0.0000000e+00 0.0000000e+00 
3.2500000e+00 4.3301269e-01 0.0000000e+00 
3.3750000e+00 2.1650635e-01 0.0000000e+00 
3.2500000e+00 1.0000000e+00 0.0000000e+00 
3.3750000e+00 7.1650636e-01 0.0000000e+00 
3.5000000e+00 0.0000000e+00 0.0000000e+00 
3.5000000e+00 4.3301269e-01 0.0000000e+00 
3.6250000e+00 2.1650635e-01 0.0000000e+00 
3.5000000e+00 1.0000000e+00 0.0000000e+00 
3.6250000e+00 7.1650636e-01 0.0000000e+00 
3.7500000e+00 0.0000000e+00 0.0000000e+00 
3.7500000e+00 4.3301269e-01 0.0000000e+00 
3.8750000e+00 2.1650635e-01 0.0000000e+00 
3.7500000e+00 1.0000000e+00 0.0000000e+00 
3.8750000e+00 7.1650636e-01 0.0000000e+00 
4.0000000e+00 0.0000000e+00 0.0000000e+00 
4.0208335e+00 4.6092409e-01 0.0000000e+00 
4.0000000e+00 1.0000000e+00 0.0000000e+00 
4.1458335e+00 2.4441773e-01 0.0000000e+00 
4.1458335e+00 7.4441773e-01 0.0000000e+00 
4.2500000e+00 0.0000000e+00 0.0000000e+00 
4.2916665e+00 4.8883545e-01 0.0000000e+00 
4.2500000e+00 1.0000000e+00 0.0000000e+00 
4.3958335e+00 2.4441773e-01 0.0000000e+00 
4.3958335e+00 7.4441773e-01 0.0000000e+00 
4.5000000e+00 0.0000000e+00 0.0000000e+00 
4.5000000e+00 1.0000000e+00 0.0000000e+00 
4.6458335e+00 4.9441773e-01 0.0000000e+00 
4.7500000e+00 0.0000000e+00 0.0000000e+00 
4.7500000e+00 2.5000000e-01 0.0000000e+00 
4.7500000e+00 7.5000000e-01 0.0000000e+00 
4.7500000e+00 1.0000000e+00 0.0000000e+00 
5.0000000e+00 0.0000000e+00 0.0000000e+00 
5.0000000e+00 2.5000000e-01 0.0000000e+00 
5.0000000e+00 5.0000000e-01 0.0000000e+00 
5.0000000e+00 7.5000000e-01 0.0000000e+00 
5.0000000e+00 1.0000000e+00 0.0000000e+00 

CELLS 38 266
6 0 5 4 2 3 1
6 79 89 85 84 87 82
6 62 52 55 57 53 58
6 85 89 98 87 93 91
6 79 85 75 82 80 76
6 55 52 45 53 49 50
6 75 85 81 80 83 78
6 79 75 69 76 71 74
6 45 52 42 49 47 44
6 55 45 48 50 46 51
6 69 75 65 71 70 66
6 65 75 72 70 73 68
6 69 65 59 66 61 64
6 59 65 55 61 60 56
6 37 48 45 43 46 41
6 100 90 98 95 94 99
6 26 18 11 21 13 19
6 11 18 4 13 10 6
6 26 11 24 19 17 23
6 24 11 15 17 12 20
6 26 24 33 23 28 29
6 33 24 35 28 30 34
6 35 24 27 30 25 31
6 33 35 42 34 39 38
6 42 35 45 39 40 44
6 45 35 37 40 36 41
6 15 27 24 22 25 20
6 96 98 89 97 93 92
6 81 72 75 77 73 78
6 14 4 18 8 10 16
6 5 15 11 9 12 7
6 48 59 55 54 56 51
6 90 81 85 86 83 88
6 27 37 35 32 36 31
6 72 62 65 67 63 68
6 62 55 65 58 60 63
6 90 85 98 88 91 94
6 5 11 4 7 6 3

CELL_TYPES 38
22
22
22
22
22
22
22
22
22
22
22
22
22
22
22
22
22
22
22
22
22
22
22
22
22
22
22
22
22
22
22
22
22
22
22
22
22
22
POINT_DATA 101
FIELD FieldData 2
DISPLACEMENT 3 101  float
0.0000000e+00 0.0000000e+00 0.0000000e+00 
0.0000000e+00 0.0000000e+00 0.0000000e+00 
0.0000000e+00 0.0000000e+00 0.0000000e+00 
-5.8786109e-06 2.6557816e-06 0.0000000e+00 
0.0000000e+00 0.0000000e+00 0.0000000e+00 
0.0000000e+00 0.0000000e+00 0.0000000e+00 
-7.8236035e-06 1.0648603e-05 0.0000000e+00 
-2.4230059e-05 4.3386285e-06 0.0000000e+00 
0.0000000e+00 0.0000000e+00 0.0000000e+00 
0.0000000e+00 0.0000000e+00 0.0000000e+00 
-2.9070836e-08 9.9039107e-06 0.0000000e+00 
-2.5198357e-05 1.5031766e-05 0.0000000e+00 
-5.0787537e-05 -4.1816124e-06 0.0000000e+00 
2.3236025e-06 2.1798929e-05 0.0000000e+00 
0.0000000e+00 0.0000000e+00 0.0000000e+00 
0.0000000e+00 0.0000000e+00 0.0000000e+00 
-3.1482114e-07 9.0918265e-06 0.0000000e+00 
-5.2267009e-05 -4.5820857e-06 0.0000000e+00 
6.7158571e-06 1.8806026e-05 0.0000000e+00 
7.5590647e-06 1.6691427e-05 0.0000000e+00 
-1.0078761e-04 -3.6199843e-05 0.0000000e+00 
3.4960809e-05 1.7792756e-05 0.0000000e+00 
0.0000000e+00 0.0000000e+00 0.0000000e+00 
2.5691621e-05 -2.7269438e-05 0.0000000e+00 
-9.3711111e-05 -8.4034953e-05 0.0000000e+00 
-1.6295555e-04 -1.1433753e-04 0.0000000e+00 
8.2304628e-05 -4.8939442e-06 0.0000000e+00 
0.0000000e+00 0.0000000e+00 0.0000000e+00 
3.3988523e-05 -1.6376658e-04 0.0000000e+00 
1.9260963e-04 -9.2606155e-05 0.0000000e+00 
-1.7419383e-04 -2.7956118e-04 0.0000000e+00 
-2.2738529e-04 -2.7152622e-04 0.0000000e+00 
0.0000000e+00 0.0000000e+00 0.0000000e+00 
3.5075986e-04 -3.1523118e-04 0.0000000e+00 
1.3600655e-05 -5.0501135e-04 0.0000000e+00 
-2.7819921e-04 -6.9801894e-04 0.0000000e+00 
-2.3932799e-04 -5.0367357e-04 0.0000000e+00 
0.0000000e+00 0.0000000e+00 0.0000000e+00 
5.6817301e-04 -8.7414263e-04 0.0000000e+00 
-6.6618566e-05 -1.2792865e-03 0.0000000e+00 
-2.6279697e-04 -1.3424116e-03 0.0000000e+00 
-1.2520218e-04 -7.0390996e-04 0.0000000e+00 
6.6935131e-04 -2.2219082e-03 0.0000000e+00 
0.0000000e+00 0.0000000e+00 0.0000000e+00 
-1.3191522e-04 -2.4870334e-03 0.0000000e+00 
-7.0452347e-06 -1.7450305e-03 0.0000000e+00 
7.2276220e-05 -7.0919021e-04 0.0000000e+00 
-2.5136043e-07 -4.2205015e-03 0.0000000e+00 
0.0000000e+00 0.0000000e+00 0.0000000e+00 
1.9612290e-04 -2.3734772e-03 0.0000000e+00 
2.1482661e-04 -1.3257294e-03 0.0000000e+00 
1.5790752e-04 -5.4920960e-04 0.0000000e+00 
-5.8107387e-04 -1.8327406e-03 0.0000000e+00 
4.3249231e-05 -1.2268893e-03 0.0000000e+00 
0.0000000e+00 0.0000000e+00 0.0000000e+00 
1.7785218e-04 -8.3877548e-04 0.0000000e+00 
1.3637339e-04 -4.0242451e-04 0.0000000e+00 
-3.4480329e-04 -1.0106033e-03 0.0000000e+00 
-4.6081641e-05 -8.4200414e-04 0.0000000e+00 
0.0000000e+00 0.0000000e+00 0.0000000e+00 
1.0283120e-04 -6.0179172e-04 0.0000000e+00 
1.0564967e-04 -2.4648491e-04 0.0000000e+00 
-1.1609090e-04 -1.0151190e-03 0.0000000e+00 
-3.3042554e-05 -8.4256334e-04 0.0000000e+00 
0.0000000e+00 0.0000000e+00 0.0000000e+00 
1.2077425e-04 -4.5861016e-04 0.0000000e+00 
1.1163486e-04 -1.8805063e-04 0.0000000e+00 
-1.8767673e-04 -1.4232951e-03 0.0000000e+00 
7.1044495e-05 -6.9113576e-04 0.0000000e+00 
0.0000000e+00 0.0000000e+00 0.0000000e+00 
1.4882497e-04 -3.0939269e-04 0.0000000e+00 
1.0663816e-04 -1.1973717e-04 0.0000000e+00 
-2.7415491e-04 -5.9278181e-04 0.0000000e+00 
4.7545182e-05 -3.2286465e-04 0.0000000e+00 
0.0000000e+00 0.0000000e+00 0.0000000e+00 
1.2497733e-04 -1.5611893e-04 0.0000000e+00 
8.2075370e-05 -5.9890364e-05 0.0000000e+00 
-1.9733582e-04 -2.2889802e-04 0.0000000e+00 
2.2445573e-05 -1.1740419e-04 0.0000000e+00 
0.0000000e+00 0.0000000e+00 0.0000000e+00 
7.3265350e-05 -5.1479234e-05 0.0000000e+00 
-1.1322908e-04 -6.6216206e-05 0.0000000e+00 
5.2697091e-05 -2.1732076e-05 0.0000000e+00 
5.2080429e-07 -2.2310978e-05 0.0000000e+00 
0.0000000e+00 0.0000000e+00 0.0000000e+00 
3.5456855e-05 -8.1277185e-06 0.0000000e+00 
-5.6524666e-05 -1.0566720e-05 0.0000000e+00 
2.8614841e-05 -4.9935820e-06 0.0000000e+00 
-4.2611288e-07 5.6114791e-06 0.0000000e+00 
0.0000000e+00 0.0000000e+00 0.0000000e+00 
-1.8608223e-05 8.6053178e-06 0.0000000e+00 
1.2038306e-05 5.5248670e-06 0.0000000e+00 
0.0000000e+00 0.0000000e+00 0.0000000e+00 
8.3163495e-06 7.5860726e-07 0.0000000e+00 
-5.1239817e-07 7.7430013e-06 0.0000000e+00 
-5.3869944e-06 6.2209324e-06 0.0000000e+00 
0.0000000e+00 0.0000000e+00 0.0000000e+00 
0.0000000e+00 0.0000000e+00 0.0000000e+00 
0.0000000e+00 0.0000000e+00 0.0000000e+00 
0.0000000e+00 0.0000000e+00 0.0000000e+00 
0.0000000e+00 0.0000000e+00 0.0000000e+00 
TOTAL_DISPLACEMENT 3 101  float
0.0000000e+00 0.0000000e+00 0.0000000e+00 
0.0000000e+00 0.0000000e+00 0.0000000e+00 
0.0000000e+00 0.0000000e+00 0.0000000e+00 
-5.8786109e-06 2.6557816e-06 0.0000000e+00 
0.0000000e+00 0.0000000e+00 0.0000000e+00 
0.0000000e+00 0.0000000e+00 0.0000000e+00 
-7.8236035e-06 1.0648603e-05 0.0000000e+00 
-2.4230059e-05 4.3386285e-06 0.0000000e+00 
0.0000000e+00 0.0000000e+00 0.0000000e+00 
0.0000000e+00 0.0000000e+00 0.0000000e+00 
-2.9070836e-08 9.9039107e-06 0.0000000e+00 
-2.5198357e-05 1.5031766e-05 0.0000000e+00 
-5.0787537e-05 -4.1816124e-06 0.0000000e+00 
2.3236025e-06 2.1798929e-05 0.0000000e+00 
0.0000000e+00 0.0000000e+00 0.0000000e+00 
0.0000000e+00 0.0000000e+00 0.0000000e+00 
-3.1482114e-07 9.0918265e-06 0.0000000e+00 
-5.2267009e-05 -4.5820857e-06 0.0000000e+00 
6.7158571e-06 1.8806026e-05 0.0000000e+00 
7.5590647e-06 1.6691427e-05 0.0000000e+00 
-1.0078761e-04 -3.6199843e-05 0.0000000e+00 
3.4960809e-05 1.7792756e-05 0.0000000e+00 
0.0000000e+00 0.0000000e+00 0.0000000e+00 
2.5691621e-05 -2.7269438e-05 0.0000000e+00 
-9.3711111e-05 -8.4034953e-05 0.0000000e+00 
-1.6295555e-04 -1.1433753e-04 0.0000000e+00 
8.2304628e-05 -4.8939442e-06 0.0000000e+00 
0.0000000e+00 0.0000000e+00 0.0000000e+00 
3.3988523e-05 -1.6376658e-04 0.0000000e+00 
1.9260963e-04 -9.2606155e-05 0.0000000e+00 
-1.7419383e-04 -2.7956118e-04 0.0000000e+00 
-2.2738529e-04 -2.7152622e-04 0.0000000e+00 
0.0000000e+00 0.0000000e+00 0.0000000e+00 
3.5075986e-04 -3.1523118e-04 0.0000000e+00 
1.3600655e-05 -5.0501135e-04 0.0000000e+00 
-2.7819921e-04 -6.9801894e-04 0.0000000e+00 
-2.3932799e-04 -5.0367357e-04 0.0000000e+00 
0.0000000e+00 0.0000000e+00 0.0000000e+00 
5.6817301e-04 -8.7414263e-04 0.0000000e+00 
-6.6618566e-05 -1.2792865e-03 0.0000000e+00 
-2.6279697e-04 -1.3424116e-03 0.0000000e+00 
-1.2520218e-04 -7.0390996e-04 0.0000000e+00 
6.6935131e-04 -2.2219082e-03 0.0000000e+00 
0.0000000e+00 0.0000000e+00 0.0000000e+00 
-1.3191522e-04 -2.4870334e-03 0.0000000e+00 
-7.0452347e-06 -1.7450305e-03 0.0000000e+00 
7.2276220e-05 -7.0919021e-04 0.0000000e+00 
-2.5136043e-07 -4.2205015e-03 0.0000000e+00 
0.0000000e+00 0.0000000e+00 0.0000000e+00 
1.9612290e-04 -2.3734772e-03 0.0000000e+00 
2.1482661e-04 -1.3257294e-03 0.0000000e+00 
1.5790752e-04 -5.4920960e-04 0.0000000e+00 
-5.8107387e-04 -1.8327406e-03 0.0000000e+00 
4.3249231e-05 -1.2268893e-03 0.0000000e+00 
0.0000000e+00 0.0000000e+00 0.0000000e+00 
1.7785218e-04 -8.3877548e-04 0.0000000e+00 
1.3637339e-04 -4.0242451e-04 0.0000000e+00 
-3.4480329e-04 -1.0106033e-03 0.0000000e+00 
-4.6081641e-05 -8.4200414e-04 0.0000000e+00 
0.0000000e+00 0.0000000e+00 0.0000000e+00 
1.0283120e-04 -6.0179172e-04 0.0000000e+00 
1.0564967e-04 -2.4648491e-04 0.0000000e+00 
-1.1609090e-04 -1.0151190e-03 0.0000000e+00 
-3.3042554e-05 -8.4256334e-04 0.0000000e+00 
0.0000000e+00 0.0000000e+00 0.0000000e+00 
1.2077425e-04 -4.5861016e-04 0.0000000e+00 
1.1163486e-04 -1.8805063e-04 0.0000000e+00 
-1.8767673e-04 -1.4232951e-03 0.0000000e+00 
7.1044495e-05 -6.9113576e-04 0.0000000e+00 
0.0000000e+00 0.0000000e+00 0.0000000e+00 
1.4882497e-04 -3.0939269e-04 0.0000000e+00 
1.0663816e-04 -1.1973717e-04 0.0000000e+00 
-2.7415491e-04 -5.9278181e-04 0.0000000e+00 
4.7545182e-05 -3.2286465e-04 0.0000000e+00 
0.0000000e+00 0.0000000e+00 0.0000000e+00 
1.2497733e-04 -1.5611893e-04 0.0000000e+00 
8.2075370e-05 -5.9890364e-05 0.0000000e+00 
-1.9733582e-04 -2.2889802e-04 0.0000000e+00 
2.2445573e-05 -1.1740419e-04 0.0000000e+00 
0.0000000e+00 0.0000000e+00 0.0000000e+00 
7.3265350e-05 -5.1479234e-05 0.0000000e+00 
-1.1322908e-04 -6.6216206e-05 0.0000000e+00 
5.2697091e-05 -2.1732076e-05 0.0000000e+00 
5.2080429e-07 -2.2310978e-05 0.0000000e+00 
0.0000000e+00 0.0000000e+00 0.0000000e+00 
3.5456855e-05 -8.1277185e-06 0.0000000e+00 
-5.6524666e-05 -1.0566720e-05 0.0000000e+00 
2.8614841e-05 -4.9935820e-06 0.0000000e+00 
-4.2611288e-07 5.6114791e-06 0.0000000e+00 
0.0000000e+00 0.0000000e+00 0.0000000e+00 
-1.8608223e-05 8.6053178e-06 0.0000000e+00 
1.2038306e-05 5.5248670e-06 0.0000000e+00 
0.0000000e+00 0.0000000e+00 0.0000000e+00 
8.3163495e-06 7.5860726e-07 0.0000000e+00 
-5.1239817e-07 7.7430013e-06 0.0000000e+00 
-5.3869944e-06 6.2209324e-06 0.0000000e+00 
0.0000000e+00 0.0000000e+00 0.0000000e+00 
0.0000000e+00 0.0000000e+00 0.0000000e+00 
0.0000000e+00 0.0000000e+00 0.0000000e+00 
0.0000000e+00 0.0000000e+00 0.0000000e+00 
0.0000000e+00 0.0000000e+00 0.0000000e+00 
CELL_DATA 38
FIELD FieldData 0
