# vtk DataFile Version 4.0
vtk output
ASCII
DATASET UNSTRUCTURED_GRID
POINTS 101 float
0.0000000e+00 0.0000000e+00 0.0000000e+00 
0.0000000e+00 2.5000000e-01 0.0000000e+00 
2.5000000e-01 0.0000000e+00 0.0000000e+00 
2.5000000e-01 2.5000000e-01 0.0000000e+00 
0.0000000e+00 5.0000000e-01 0.0000000e+00 
5.0000000e-01 0.0000000e+00 0.0000000e+00 
3.5416666e-01 5.0558227e-01 0.0000000e+00 
6.0416669e-01 2.5558227e-01 0.0000000e+00 
0.0000000e+00 7.5000000e-01 0.0000000e+00 
7.5000000e-01 0.0000000e+00 0.0000000e+00 
2.5000000e-01 7.5000000e-01 0.0000000e+00 
7.0833331e-01 5.1116455e-01 0.0000000e+00 
8.5416669e-01 2.5558227e-01 0.0000000e+00 
6.0416669e-01 7.5558227e-01 0.0000000e+00 
0.0000000e+00 1.0000000e+00 0.0000000e+00 
1.0000000e+00 0.0000000e+00 0.0000000e+00 
2.5000000e-01 1.0000000e+00 0.0000000e+00 
9.7916669e-01 5.3907591e-01 0.0000000e+00 
5.0000000e-01 1.0000000e+00 0.0000000e+00 
8.5416669e-01 7.5558227e-01 0.0000000e+00 
1.1250000e+00 2.8349364e-01 0.0000000e+00 
7.5000000e-01 1.0000000e+00 0.0000000e+00 
1.2500000e+00 0.0000000e+00 0.0000000e+00 
1.1250000e+00 7.8349364e-01 0.0000000e+00 
1.2500000e+00 5.6698728e-01 0.0000000e+00 
1.3750000e+00 2.8349364e-01 0.0000000e+00 
1.0000000e+00 1.0000000e+00 0.0000000e+00 
1.5000000e+00 0.0000000e+00 0.0000000e+00 
1.3750000e+00 7.8349364e-01 0.0000000e+00 
1.2500000e+00 1.0000000e+00 0.0000000e+00 
1.5000000e+00 5.6698728e-01 0.0000000e+00 
1.6250000e+00 2.8349364e-01 0.0000000e+00 
1.7500000e+00 0.0000000e+00 0.0000000e+00 
1.5000000e+00 1.0000000e+00 0.0000000e+00 
1.6250000e+00 7.8349364e-01 0.0000000e+00 
1.7500000e+00 5.6698728e-01 0.0000000e+00 
1.8750000e+00 2.8349364e-01 0.0000000e+00 
2.0000000e+00 0.0000000e+00 0.0000000e+00 
1.7500000e+00 1.0000000e+00 0.0000000e+00 
1.8750000e+00 7.8349364e-01 0.0000000e+00 
2.0000000e+00 5.6698728e-01 0.0000000e+00 
2.1250000e+00 2.8349364e-01 0.0000000e+00 
2.0000000e+00 1.0000000e+00 0.0000000e+00 
2.2500000e+00 0.0000000e+00 0.0000000e+00 
2.1250000e+00 7.8349364e-01 0.0000000e+00 
2.2500000e+00 5.6698728e-01 0.0000000e+00 
2.3750000e+00 2.8349364e-01 0.0000000e+00 
2.2500000e+00 1.0000000e+00 0.0000000e+00 
2.5000000e+00 0.0000000e+00 0.0000000e+00 
2.3750000e+00 7.8349364e-01 0.0000000e+00 
2.5000000e+00 5.6698728e-01 0.0000000e+00 
2.6250000e+00 2.8349364e-01 0.0000000e+00 
2.5000000e+00 1.0000000e+00 0.0000000e+00 
2.6250000e+00 7.8349364e-01 0.0000000e+00 
2.7500000e+00 0.0000000e+00 0.0000000e+00 
2.7500000e+00 5.6698728e-01 0.0000000e+00 
2.8750000e+00 2.8349364e-01 0.0000000e+00 
2.7500000e+00 1.0000000e+00 0.0000000e+00 
2.8750000e+00 7.8349364e-01 0.0000000e+00 
3.0000000e+00 0.0000000e+00 0.0000000e+00 
3.0000000e+00 5.0000000e-01 0.0000000e+00 
3.1250000e+00 2.1650635e-01 0.0000000e+00 
3.0000000e+00 1.0000000e+00 0.0000000e+00 
3.1250000e+00 7.1650636e-01 0.0000000e+00 
3.2500000e+00 0.0000000e+00 0.0000000e+00 
3.2500000e+00 4.3301269e-01 0.0000000e+00 
3.3750000e+00 2.1650635e-01 0.0000000e+00 
3.2500000e+00 1.0000000e+00 0.0000000e+00 
3.3750000e+00 7.1650636e-01 0.0000000e+00 
3.5000000e+00 0.0000000e+00 0.0000000e+00 
3.5000000e+00 4.3301269e-01 0.0000000e+00 
3.6250000e+00 2.1650635e-01 0.0000000e+00 
3.5000000e+00 1.0000000e+00 0.0000000e+00 
3.6250000e+00 7.1650636e-01 0.0000000e+00 
3.7500000e+00 0.0000000e+00 0.0000000e+00 
3.7500000e+00 4.3301269e-01 0.0000000e+00 
3.8750000e+00 2.1650635e-01 0.0000000e+00 
3.7500000e+00 1.0000000e+00 0.0000000e+00 
3.8750000e+00 7.1650636e-01 0.0000000e+00 
4.0000000e+00 0.0000000e+00 0.0000000e+00 
4.0208335e+00 4.6092409e-01 0.0000000e+00 
4.0000000e+00 1.0000000e+00 0.0000000e+00 
4.1458335e+00 2.4441773e-01 0.0000000e+00 
4.1458335e+00 7.4441773e-01 0.0000000e+00 
4.2500000e+00 0.0000000e+00 0.0000000e+00 
4.2916665e+00 4.8883545e-01 0.0000000e+00 
4.2500000e+00 1.0000000e+00 0.0000000e+00 
4.3958335e+00 2.4441773e-01 0.0000000e+00 
4.3958335e+00 7.4441773e-01 0.0000000e+00 
4.5000000e+00 0.0000000e+00 0.0000000e+00 
4.5000000e+00 1.0000000e+00 0.0000000e+00 
4.6458335e+00 4.9441773e-01 0.0000000e+00 
4.7500000e+00 0.0000000e+00 0.0000000e+00 
4.7500000e+00 2.5000000e-01 0.0000000e+00 
4.7500000e+00 7.5000000e-01 0.0000000e+00 
4.7500000e+00 1.0000000e+00 0.0000000e+00 
5.0000000e+00 0.0000000e+00 0.0000000e+00 
5.0000000e+00 2.5000000e-01 0.0000000e+00 
5.0000000e+00 5.0000000e-01 0.0000000e+00 
5.0000000e+00 7.5000000e-01 0.0000000e+00 
5.0000000e+00 1.0000000e+00 0.0000000e+00 

CELLS 38 266
6 0 5 4 2 3 1
6 79 89 85 84 87 82
6 62 52 55 57 53 58
6 85 89 98 87 93 91
6 79 85 75 82 80 76
6 55 52 45 53 49 50
6 75 85 81 80 83 78
6 79 75 69 76 71 74
6 45 52 42 49 47 44
6 55 45 48 50 46 51
6 69 75 65 71 70 66
6 65 75 72 70 73 68
6 69 65 59 66 61 64
6 59 65 55 61 60 56
6 37 48 45 43 46 41
6 100 90 98 95 94 99
6 26 18 11 21 13 19
6 11 18 4 13 10 6
6 26 11 24 19 17 23
6 24 11 15 17 12 20
6 26 24 33 23 28 29
6 33 24 35 28 30 34
6 35 24 27 30 25 31
6 33 35 42 34 39 38
6 42 35 45 39 40 44
6 45 35 37 40 36 41
6 15 27 24 22 25 20
6 96 98 89 97 93 92
6 81 72 75 77 73 78
6 14 4 18 8 10 16
6 5 15 11 9 12 7
6 48 59 55 54 56 51
6 90 81 85 86 83 88
6 27 37 35 32 36 31
6 72 62 65 67 63 68
6 62 55 65 58 60 63
6 90 85 98 88 91 94
6 5 11 4 7 6 3

CELL_TYPES 38
22
22
22
22
22
22
22
22
22
22
22
22
22
22
22
22
22
22
22
22
22
22
22
22
22
22
22
22
22
22
22
22
22
22
22
22
22
22
POINT_DATA 101
FIELD FieldData 2
DISPLACEMENT 3 101  float
0.0000000e+00 0.0000000e+00 0.0000000e+00 
0.0000000e+00 0.0000000e+00 0.0000000e+00 
0.0000000e+00 0.0000000e+00 0.0000000e+00 
-3.0809169e-05 -2.4043799e-04 0.0000000e+00 
0.0000000e+00 0.0000000e+00 0.0000000e+00 
0.0000000e+00 0.0000000e+00 0.0000000e+00 
1.2889241e-04 -7.4491499e-04 0.0000000e+00 
6.8408968e-05 -3.1691501e-04 0.0000000e+00 
0.0000000e+00 0.0000000e+00 0.0000000e+00 
0.0000000e+00 0.0000000e+00 0.0000000e+00 
1.0068209e-04 -1.3096894e-03 0.0000000e+00 
1.0725562e-04 -5.4904661e-04 0.0000000e+00 
6.1782615e-05 -2.8052108e-04 0.0000000e+00 
1.3326533e-04 -8.5905119e-04 0.0000000e+00 
0.0000000e+00 0.0000000e+00 0.0000000e+00 
0.0000000e+00 0.0000000e+00 0.0000000e+00 
-9.8379962e-05 -2.6378336e-03 0.0000000e+00 
5.7394747e-05 -5.6733144e-04 0.0000000e+00 
-2.2288163e-05 -1.3501915e-03 0.0000000e+00 
5.2597865e-05 -6.8811484e-04 0.0000000e+00 
7.2312883e-05 -2.9451313e-04 0.0000000e+00 
1.0345196e-05 -7.7359285e-04 0.0000000e+00 
0.0000000e+00 0.0000000e+00 0.0000000e+00 
-8.3608002e-06 -9.1656367e-04 0.0000000e+00 
9.6275398e-05 -6.2544865e-04 0.0000000e+00 
1.1127546e-04 -2.4730706e-04 0.0000000e+00 
8.7125416e-05 -9.0972503e-04 0.0000000e+00 
0.0000000e+00 0.0000000e+00 0.0000000e+00 
8.9881345e-05 -7.9054665e-04 0.0000000e+00 
-7.4629032e-05 -1.4456959e-03 0.0000000e+00 
1.4623879e-04 -4.1846343e-04 0.0000000e+00 
1.2057431e-04 -1.5860196e-04 0.0000000e+00 
0.0000000e+00 0.0000000e+00 0.0000000e+00 
-2.3692826e-04 -5.7761907e-04 0.0000000e+00 
3.7942053e-05 -3.4563366e-04 0.0000000e+00 
1.2363284e-04 -1.9600386e-04 0.0000000e+00 
9.7156983e-05 -7.8335164e-05 0.0000000e+00 
0.0000000e+00 0.0000000e+00 0.0000000e+00 
-1.6274548e-04 -2.2870325e-04 0.0000000e+00 
1.4301743e-05 -1.2685604e-04 0.0000000e+00 
7.6944285e-05 -6.9423804e-05 0.0000000e+00 
6.5690088e-05 -2.9985802e-05 0.0000000e+00 
-8.2442224e-05 -7.4165553e-05 0.0000000e+00 
0.0000000e+00 0.0000000e+00 0.0000000e+00 
8.2226179e-06 -3.3902721e-05 0.0000000e+00 
4.4651151e-05 -1.5443929e-05 0.0000000e+00 
4.0379917e-05 -7.8801913e-06 0.0000000e+00 
-3.6160698e-05 -1.5438634e-05 0.0000000e+00 
0.0000000e+00 0.0000000e+00 0.0000000e+00 
8.7281196e-06 3.5067026e-07 0.0000000e+00 
2.7290986e-05 2.8346817e-06 0.0000000e+00 
2.3725088e-05 -2.4823053e-09 0.0000000e+00 
-6.0798493e-06 5.3733324e-06 0.0000000e+00 
9.6777103e-06 8.9885116e-06 0.0000000e+00 
0.0000000e+00 0.0000000e+00 0.0000000e+00 
1.6586395e-05 7.4565328e-06 0.0000000e+00 
1.3721254e-05 2.0304872e-06 0.0000000e+00 
4.5644369e-06 9.2732917e-06 0.0000000e+00 
9.8818236e-06 8.9989817e-06 0.0000000e+00 
0.0000000e+00 0.0000000e+00 0.0000000e+00 
1.1602436e-05 5.0586641e-06 0.0000000e+00 
6.7035039e-06 1.1708640e-06 0.0000000e+00 
9.4490943e-06 7.7025716e-06 0.0000000e+00 
9.0073472e-06 5.8960991e-06 0.0000000e+00 
0.0000000e+00 0.0000000e+00 0.0000000e+00 
7.5553617e-06 2.9729224e-06 0.0000000e+00 
3.8564767e-06 7.8516854e-07 0.0000000e+00 
9.3554054e-06 5.2866285e-06 0.0000000e+00 
7.3917763e-06 3.5464827e-06 0.0000000e+00 
0.0000000e+00 0.0000000e+00 0.0000000e+00 
5.1127504e-06 1.4946670e-06 0.0000000e+00 
2.4070130e-06 3.2246578e-07 0.0000000e+00 
8.3215600e-06 3.1530881e-06 0.0000000e+00 
5.8486307e-06 1.8001620e-06 0.0000000e+00 
0.0000000e+00 0.0000000e+00 0.0000000e+00 
3.5108164e-06 6.4975069e-07 0.0000000e+00 
1.5929825e-06 6.0043170e-08 0.0000000e+00 
6.5263366e-06 1.7122001e-06 0.0000000e+00 
4.4705366e-06 7.5994905e-07 0.0000000e+00 
0.0000000e+00 0.0000000e+00 0.0000000e+00 
2.6024891e-06 1.0247722e-07 0.0000000e+00 
4.8357001e-06 8.5113459e-07 0.0000000e+00 
1.2029103e-06 -1.1767487e-07 0.0000000e+00 
3.2607950e-06 2.1434384e-07 0.0000000e+00 
0.0000000e+00 0.0000000e+00 0.0000000e+00 
1.8452104e-06 -1.3021621e-07 0.0000000e+00 
3.3410813e-06 4.0236029e-07 0.0000000e+00 
8.0539382e-07 -1.8178169e-07 0.0000000e+00 
2.1805733e-06 -1.1349703e-08 0.0000000e+00 
0.0000000e+00 0.0000000e+00 0.0000000e+00 
2.0551809e-06 2.2526092e-07 0.0000000e+00 
8.8272122e-07 -2.0327957e-07 0.0000000e+00 
0.0000000e+00 0.0000000e+00 0.0000000e+00 
3.3643818e-07 -1.5654398e-07 0.0000000e+00 
8.3831412e-07 -5.6912235e-08 0.0000000e+00 
9.6000133e-07 1.4850515e-07 0.0000000e+00 
0.0000000e+00 0.0000000e+00 0.0000000e+00 
0.0000000e+00 0.0000000e+00 0.0000000e+00 
0.0000000e+00 0.0000000e+00 0.0000000e+00 
0.0000000e+00 0.0000000e+00 0.0000000e+00 
0.0000000e+00 0.0000000e+00 0.0000000e+00 
TOTAL_DISPLACEMENT 3 101  float
0.0000000e+00 0.0000000e+00 0.0000000e+00 
0.0000000e+00 0.0000000e+00 0.0000000e+00 
0.0000000e+00 0.0000000e+00 0.0000000e+00 
-3.0809169e-05 -2.4043799e-04 0.0000000e+00 
0.0000000e+00 0.0000000e+00 0.0000000e+00 
0.0000000e+00 0.0000000e+00 0.0000000e+00 
1.2889241e-04 -7.4491499e-04 0.0000000e+00 
6.8408968e-05 -3.1691501e-04 0.0000000e+00 
0.0000000e+00 0.0000000e+00 0.0000000e+00 
0.0000000e+00 0.0000000e+00 0.0000000e+00 
1.0068209e-04 -1.3096894e-03 0.0000000e+00 
1.0725562e-04 -5.4904661e-04 0.0000000e+00 
6.1782615e-05 -2.8052108e-04 0.0000000e+00 
1.3326533e-04 -8.5905119e-04 0.0000000e+00 
0.0000000e+00 0.0000000e+00 0.0000000e+00 
0.0000000e+00 0.0000000e+00 0.0000000e+00 
-9.8379962e-05 -2.6378336e-03 0.0000000e+00 
5.7394747e-05 -5.6733144e-04 0.0000000e+00 
-2.2288163e-05 -1.3501915e-03 0.0000000e+00 
5.2597865e-05 -6.8811484e-04 0.0000000e+00 
7.2312883e-05 -2.9451313e-04 0.0000000e+00 
1.0345196e-05 -7.7359285e-04 0.0000000e+00 
0.0000000e+00 0.0000000e+00 0.0000000e+00 
-8.3608002e-06 -9.1656367e-04 0.0000000e+00 
9.6275398e-05 -6.2544865e-04 0.0000000e+00 
1.1127546e-04 -2.4730706e-04 0.0000000e+00 
8.7125416e-05 -9.0972503e-04 0.0000000e+00 
0.0000000e+00 0.0000000e+00 0.0000000e+00 
8.9881345e-05 -7.9054665e-04 0.0000000e+00 
-7.4629032e-05 -1.4456959e-03 0.0000000e+00 
1.4623879e-04 -4.1846343e-04 0.0000000e+00 
1.2057431e-04 -1.5860196e-04 0.0000000e+00 
0.0000000e+00 0.0000000e+00 0.0000000e+00 
-2.3692826e-04 -5.7761907e-04 0.0000000e+00 
3.7942053e-05 -3.4563366e-04 0.0000000e+00 
1.2363284e-04 -1.9600386e-04 0.0000000e+00 
9.7156983e-05 -7.8335164e-05 0.0000000e+00 
0.0000000e+00 0.0000000e+00 0.0000000e+00 
-1.6274548e-04 -2.2870325e-04 0.0000000e+00 
1.4301743e-05 -1.2685604e-04 0.0000000e+00 
7.6944285e-05 -6.9423804e-05 0.0000000e+00 
6.5690088e-05 -2.9985802e-05 0.0000000e+00 
-8.2442224e-05 -7.4165553e-05 0.0000000e+00 
0.0000000e+00 0.0000000e+00 0.0000000e+00 
8.2226179e-06 -3.3902721e-05 0.0000000e+00 
4.4651151e-05 -1.5443929e-05 0.0000000e+00 
4.0379917e-05 -7.8801913e-06 0.0000000e+00 
-3.6160698e-05 -1.5438634e-05 0.0000000e+00 
0.0000000e+00 0.0000000e+00 0.0000000e+00 
8.7281196e-06 3.5067026e-07 0.0000000e+00 
2.7290986e-05 2.8346817e-06 0.0000000e+00 
2.3725088e-05 -2.4823053e-09 0.0000000e+00 
-6.0798493e-06 5.3733324e-06 0.0000000e+00 
9.6777103e-06 8.9885116e-06 0.0000000e+00 
0.0000000e+00 0.0000000e+00 0.0000000e+00 
1.6586395e-05 7.4565328e-06 0.0000000e+00 
1.3721254e-05 2.0304872e-06 0.0000000e+00 
4.5644369e-06 9.2732917e-06 0.0000000e+00 
9.8818236e-06 8.9989817e-06 0.0000000e+00 
0.0000000e+00 0.0000000e+00 0.0000000e+00 
1.1602436e-05 5.0586641e-06 0.0000000e+00 
6.7035039e-06 1.1708640e-06 0.0000000e+00 
9.4490943e-06 7.7025716e-06 0.0000000e+00 
9.0073472e-06 5.8960991e-06 0.0000000e+00 
0.0000000e+00 0.0000000e+00 0.0000000e+00 
7.5553617e-06 2.9729224e-06 0.0000000e+00 
3.8564767e-06 7.8516854e-07 0.0000000e+00 
9.3554054e-06 5.2866285e-06 0.0000000e+00 
7.3917763e-06 3.5464827e-06 0.0000000e+00 
0.0000000e+00 0.0000000e+00 0.0000000e+00 
5.1127504e-06 1.4946670e-06 0.0000000e+00 
2.4070130e-06 3.2246578e-07 0.0000000e+00 
8.3215600e-06 3.1530881e-06 0.0000000e+00 
5.8486307e-06 1.8001620e-06 0.0000000e+00 
0.0000000e+00 0.0000000e+00 0.0000000e+00 
3.5108164e-06 6.4975069e-07 0.0000000e+00 
1.5929825e-06 6.0043170e-08 0.0000000e+00 
6.5263366e-06 1.7122001e-06 0.0000000e+00 
4.4705366e-06 7.5994905e-07 0.0000000e+00 
0.0000000e+00 0.0000000e+00 0.0000000e+00 
2.6024891e-06 1.0247722e-07 0.0000000e+00 
4.8357001e-06 8.5113459e-07 0.0000000e+00 
1.2029103e-06 -1.1767487e-07 0.0000000e+00 
3.2607950e-06 2.1434384e-07 0.0000000e+00 
0.0000000e+00 0.0000000e+00 0.0000000e+00 
1.8452104e-06 -1.3021621e-07 0.0000000e+00 
3.3410813e-06 4.0236029e-07 0.0000000e+00 
8.0539382e-07 -1.8178169e-07 0.0000000e+00 
2.1805733e-06 -1.1349703e-08 0.0000000e+00 
0.0000000e+00 0.0000000e+00 0.0000000e+00 
2.0551809e-06 2.2526092e-07 0.0000000e+00 
8.8272122e-07 -2.0327957e-07 0.0000000e+00 
0.0000000e+00 0.0000000e+00 0.0000000e+00 
3.3643818e-07 -1.5654398e-07 0.0000000e+00 
8.3831412e-07 -5.6912235e-08 0.0000000e+00 
9.6000133e-07 1.4850515e-07 0.0000000e+00 
0.0000000e+00 0.0000000e+00 0.0000000e+00 
0.0000000e+00 0.0000000e+00 0.0000000e+00 
0.0000000e+00 0.0000000e+00 0.0000000e+00 
0.0000000e+00 0.0000000e+00 0.0000000e+00 
0.0000000e+00 0.0000000e+00 0.0000000e+00 
CELL_DATA 38
FIELD FieldData 0
