# vtk DataFile Version 4.0
vtk output
ASCII
DATASET UNSTRUCTURED_GRID
POINTS 101 float
0.0000000e+00 0.0000000e+00 0.0000000e+00 
0.0000000e+00 2.5000000e-01 0.0000000e+00 
2.5000000e-01 0.0000000e+00 0.0000000e+00 
2.5000000e-01 2.5000000e-01 0.0000000e+00 
0.0000000e+00 5.0000000e-01 0.0000000e+00 
5.0000000e-01 0.0000000e+00 0.0000000e+00 
3.5416666e-01 5.0558227e-01 0.0000000e+00 
6.0416669e-01 2.5558227e-01 0.0000000e+00 
0.0000000e+00 7.5000000e-01 0.0000000e+00 
7.5000000e-01 0.0000000e+00 0.0000000e+00 
2.5000000e-01 7.5000000e-01 0.0000000e+00 
7.0833331e-01 5.1116455e-01 0.0000000e+00 
8.5416669e-01 2.5558227e-01 0.0000000e+00 
6.0416669e-01 7.5558227e-01 0.0000000e+00 
0.0000000e+00 1.0000000e+00 0.0000000e+00 
1.0000000e+00 0.0000000e+00 0.0000000e+00 
2.5000000e-01 1.0000000e+00 0.0000000e+00 
9.7916669e-01 5.3907591e-01 0.0000000e+00 
5.0000000e-01 1.0000000e+00 0.0000000e+00 
8.5416669e-01 7.5558227e-01 0.0000000e+00 
1.1250000e+00 2.8349364e-01 0.0000000e+00 
7.5000000e-01 1.0000000e+00 0.0000000e+00 
1.2500000e+00 0.0000000e+00 0.0000000e+00 
1.1250000e+00 7.8349364e-01 0.0000000e+00 
1.2500000e+00 5.6698728e-01 0.0000000e+00 
1.3750000e+00 2.8349364e-01 0.0000000e+00 
1.0000000e+00 1.0000000e+00 0.0000000e+00 
1.5000000e+00 0.0000000e+00 0.0000000e+00 
1.3750000e+00 7.8349364e-01 0.0000000e+00 
1.2500000e+00 1.0000000e+00 0.0000000e+00 
1.5000000e+00 5.6698728e-01 0.0000000e+00 
1.6250000e+00 2.8349364e-01 0.0000000e+00 
1.7500000e+00 0.0000000e+00 0.0000000e+00 
1.5000000e+00 1.0000000e+00 0.0000000e+00 
1.6250000e+00 7.8349364e-01 0.0000000e+00 
1.7500000e+00 5.6698728e-01 0.0000000e+00 
1.8750000e+00 2.8349364e-01 0.0000000e+00 
2.0000000e+00 0.0000000e+00 0.0000000e+00 
1.7500000e+00 1.0000000e+00 0.0000000e+00 
1.8750000e+00 7.8349364e-01 0.0000000e+00 
2.0000000e+00 5.6698728e-01 0.0000000e+00 
2.1250000e+00 2.8349364e-01 0.0000000e+00 
2.0000000e+00 1.0000000e+00 0.0000000e+00 
2.2500000e+00 0.0000000e+00 0.0000000e+00 
2.1250000e+00 7.8349364e-01 0.0000000e+00 
2.2500000e+00 5.6698728e-01 0.0000000e+00 
2.3750000e+00 2.8349364e-01 0.0000000e+00 
2.2500000e+00 1.0000000e+00 0.0000000e+00 
2.5000000e+00 0.0000000e+00 0.0000000e+00 
2.3750000e+00 7.8349364e-01 0.0000000e+00 
2.5000000e+00 5.6698728e-01 0.0000000e+00 
2.6250000e+00 2.8349364e-01 0.0000000e+00 
2.5000000e+00 1.0000000e+00 0.0000000e+00 
2.6250000e+00 7.8349364e-01 0.0000000e+00 
2.7500000e+00 0.0000000e+00 0.0000000e+00 
2.7500000e+00 5.6698728e-01 0.0000000e+00 
2.8750000e+00 2.8349364e-01 0.0000000e+00 
2.7500000e+00 1.0000000e+00 0.0000000e+00 
2.8750000e+00 7.8349364e-01 0.0000000e+00 
3.0000000e+00 0.0000000e+00 0.0000000e+00 
3.0000000e+00 5.0000000e-01 0.0000000e+00 
3.1250000e+00 2.1650635e-01 0.0000000e+00 
3.0000000e+00 1.0000000e+00 0.0000000e+00 
3.1250000e+00 7.1650636e-01 0.0000000e+00 
3.2500000e+00 0.0000000e+00 0.0000000e+00 
3.2500000e+00 4.3301269e-01 0.0000000e+00 
3.3750000e+00 2.1650635e-01 0.0000000e+00 
3.2500000e+00 1.0000000e+00 0.0000000e+00 
3.3750000e+00 7.1650636e-01 0.0000000e+00 
3.5000000e+00 0.0000000e+00 0.0000000e+00 
3.5000000e+00 4.3301269e-01 0.0000000e+00 
3.6250000e+00 2.1650635e-01 0.0000000e+00 
3.5000000e+00 1.0000000e+00 0.0000000e+00 
3.6250000e+00 7.1650636e-01 0.0000000e+00 
3.7500000e+00 0.0000000e+00 0.0000000e+00 
3.7500000e+00 4.3301269e-01 0.0000000e+00 
3.8750000e+00 2.1650635e-01 0.0000000e+00 
3.7500000e+00 1.0000000e+00 0.0000000e+00 
3.8750000e+00 7.1650636e-01 0.0000000e+00 
4.0000000e+00 0.0000000e+00 0.0000000e+00 
4.0208335e+00 4.6092409e-01 0.0000000e+00 
4.0000000e+00 1.0000000e+00 0.0000000e+00 
4.1458335e+00 2.4441773e-01 0.0000000e+00 
4.1458335e+00 7.4441773e-01 0.0000000e+00 
4.2500000e+00 0.0000000e+00 0.0000000e+00 
4.2916665e+00 4.8883545e-01 0.0000000e+00 
4.2500000e+00 1.0000000e+00 0.0000000e+00 
4.3958335e+00 2.4441773e-01 0.0000000e+00 
4.3958335e+00 7.4441773e-01 0.0000000e+00 
4.5000000e+00 0.0000000e+00 0.0000000e+00 
4.5000000e+00 1.0000000e+00 0.0000000e+00 
4.6458335e+00 4.9441773e-01 0.0000000e+00 
4.7500000e+00 0.0000000e+00 0.0000000e+00 
4.7500000e+00 2.5000000e-01 0.0000000e+00 
4.7500000e+00 7.5000000e-01 0.0000000e+00 
4.7500000e+00 1.0000000e+00 0.0000000e+00 
5.0000000e+00 0.0000000e+00 0.0000000e+00 
5.0000000e+00 2.5000000e-01 0.0000000e+00 
5.0000000e+00 5.0000000e-01 0.0000000e+00 
5.0000000e+00 7.5000000e-01 0.0000000e+00 
5.0000000e+00 1.0000000e+00 0.0000000e+00 

CELLS 38 266
6 0 5 4 2 3 1
6 79 89 85 84 87 82
6 62 52 55 57 53 58
6 85 89 98 87 93 91
6 79 85 75 82 80 76
6 55 52 45 53 49 50
6 75 85 81 80 83 78
6 79 75 69 76 71 74
6 45 52 42 49 47 44
6 55 45 48 50 46 51
6 69 75 65 71 70 66
6 65 75 72 70 73 68
6 69 65 59 66 61 64
6 59 65 55 61 60 56
6 37 48 45 43 46 41
6 100 90 98 95 94 99
6 26 18 11 21 13 19
6 11 18 4 13 10 6
6 26 11 24 19 17 23
6 24 11 15 17 12 20
6 26 24 33 23 28 29
6 33 24 35 28 30 34
6 35 24 27 30 25 31
6 33 35 42 34 39 38
6 42 35 45 39 40 44
6 45 35 37 40 36 41
6 15 27 24 22 25 20
6 96 98 89 97 93 92
6 81 72 75 77 73 78
6 14 4 18 8 10 16
6 5 15 11 9 12 7
6 48 59 55 54 56 51
6 90 81 85 86 83 88
6 27 37 35 32 36 31
6 72 62 65 67 63 68
6 62 55 65 58 60 63
6 90 85 98 88 91 94
6 5 11 4 7 6 3

CELL_TYPES 38
22
22
22
22
22
22
22
22
22
22
22
22
22
22
22
22
22
22
22
22
22
22
22
22
22
22
22
22
22
22
22
22
22
22
22
22
22
22
POINT_DATA 101
FIELD FieldData 2
DISPLACEMENT 3 101  float
0.0000000e+00 0.0000000e+00 0.0000000e+00 
0.0000000e+00 0.0000000e+00 0.0000000e+00 
0.0000000e+00 0.0000000e+00 0.0000000e+00 
-1.3189772e-04 -2.5571388e-04 0.0000000e+00 
0.0000000e+00 0.0000000e+00 0.0000000e+00 
0.0000000e+00 0.0000000e+00 0.0000000e+00 
-2.3233837e-04 -7.0201088e-04 0.0000000e+00 
-1.1478549e-04 -5.7765917e-04 0.0000000e+00 
0.0000000e+00 0.0000000e+00 0.0000000e+00 
0.0000000e+00 0.0000000e+00 0.0000000e+00 
-5.7673857e-05 -5.7643122e-04 0.0000000e+00 
-6.0051345e-05 -1.4547326e-03 0.0000000e+00 
5.3519521e-05 -6.0725393e-04 0.0000000e+00 
-1.1481596e-04 -2.1216308e-03 0.0000000e+00 
0.0000000e+00 0.0000000e+00 0.0000000e+00 
0.0000000e+00 0.0000000e+00 0.0000000e+00 
4.8826993e-04 -6.3719047e-04 0.0000000e+00 
2.1318292e-04 -1.2601413e-03 0.0000000e+00 
6.4446137e-04 -2.0786955e-03 0.0000000e+00 
2.0865959e-04 -2.2462865e-03 0.0000000e+00 
1.6144125e-04 -5.3660048e-04 0.0000000e+00 
2.2254011e-05 -4.0482194e-03 0.0000000e+00 
0.0000000e+00 0.0000000e+00 0.0000000e+00 
6.0130678e-05 -1.2003123e-03 0.0000000e+00 
1.7609447e-04 -8.1519253e-04 0.0000000e+00 
1.3797529e-04 -3.9625599e-04 0.0000000e+00 
-4.6709855e-04 -1.8181332e-03 0.0000000e+00 
0.0000000e+00 0.0000000e+00 0.0000000e+00 
-2.8074517e-05 -8.3378842e-04 0.0000000e+00 
-2.8157709e-04 -9.9511375e-04 0.0000000e+00 
8.1592661e-05 -6.7131891e-04 0.0000000e+00 
1.1801651e-04 -3.2381457e-04 0.0000000e+00 
0.0000000e+00 0.0000000e+00 0.0000000e+00 
-6.5668428e-05 -9.9120848e-04 0.0000000e+00 
-6.5054825e-05 -9.5262023e-04 0.0000000e+00 
9.7557691e-05 -6.3519430e-04 0.0000000e+00 
1.3338917e-04 -2.5150256e-04 0.0000000e+00 
0.0000000e+00 0.0000000e+00 0.0000000e+00 
-1.6972149e-04 -1.4654491e-03 0.0000000e+00 
5.0156053e-05 -7.8902667e-04 0.0000000e+00 
1.4000054e-04 -4.1190244e-04 0.0000000e+00 
1.2894251e-04 -1.5549285e-04 0.0000000e+00 
-2.8986545e-04 -5.7372748e-04 0.0000000e+00 
0.0000000e+00 0.0000000e+00 0.0000000e+00 
1.0469093e-05 -3.3472403e-04 0.0000000e+00 
1.1439896e-04 -1.8525730e-04 0.0000000e+00 
9.8233526e-05 -7.3838404e-05 0.0000000e+00 
-1.9357166e-04 -2.1926743e-04 0.0000000e+00 
0.0000000e+00 0.0000000e+00 0.0000000e+00 
-4.5238485e-06 -1.1593020e-04 0.0000000e+00 
6.7621251e-05 -6.1069295e-05 0.0000000e+00 
6.3781896e-05 -2.6364060e-05 0.0000000e+00 
-9.9585508e-05 -6.6246903e-05 0.0000000e+00 
-4.8238148e-06 -2.6265227e-05 0.0000000e+00 
0.0000000e+00 0.0000000e+00 0.0000000e+00 
3.5981990e-05 -9.6600843e-06 0.0000000e+00 
3.7880443e-05 -5.3806825e-06 0.0000000e+00 
-4.7183155e-05 -9.9450635e-06 0.0000000e+00 
-3.2142225e-07 5.3450649e-06 0.0000000e+00 
0.0000000e+00 0.0000000e+00 0.0000000e+00 
2.4905554e-05 4.6476912e-06 0.0000000e+00 
1.8405173e-05 4.9794863e-07 0.0000000e+00 
-1.3545946e-05 8.2767374e-06 0.0000000e+00 
6.5411587e-06 1.1125291e-05 0.0000000e+00 
0.0000000e+00 0.0000000e+00 0.0000000e+00 
1.5334381e-05 6.6625271e-06 0.0000000e+00 
9.3193084e-06 2.0186505e-06 0.0000000e+00 
-1.4050363e-06 1.0847532e-05 0.0000000e+00 
6.0669968e-06 9.9891240e-06 0.0000000e+00 
0.0000000e+00 0.0000000e+00 0.0000000e+00 
8.5450783e-06 5.2067508e-06 0.0000000e+00 
4.6617301e-06 1.6216196e-06 0.0000000e+00 
5.2379492e-06 8.7386188e-06 0.0000000e+00 
5.2452506e-06 6.6591533e-06 0.0000000e+00 
0.0000000e+00 0.0000000e+00 0.0000000e+00 
4.5694296e-06 3.4416589e-06 0.0000000e+00 
2.3127529e-06 1.0638192e-06 0.0000000e+00 
6.0019674e-06 5.6624149e-06 0.0000000e+00 
4.2826646e-06 3.8201274e-06 0.0000000e+00 
0.0000000e+00 0.0000000e+00 0.0000000e+00 
2.8291417e-06 1.7327336e-06 0.0000000e+00 
5.5278269e-06 3.2011087e-06 0.0000000e+00 
1.3189555e-06 5.0971664e-07 0.0000000e+00 
3.3253186e-06 1.7835911e-06 0.0000000e+00 
0.0000000e+00 0.0000000e+00 0.0000000e+00 
1.7755019e-06 7.1112646e-07 0.0000000e+00 
4.0664195e-06 1.6262555e-06 0.0000000e+00 
7.4806650e-07 1.4745726e-07 0.0000000e+00 
2.3017321e-06 7.1743642e-07 0.0000000e+00 
0.0000000e+00 0.0000000e+00 0.0000000e+00 
2.6058833e-06 7.6619801e-07 0.0000000e+00 
8.2540538e-07 1.5635599e-08 0.0000000e+00 
0.0000000e+00 0.0000000e+00 0.0000000e+00 
2.8301943e-07 -7.9726377e-08 0.0000000e+00 
9.1659740e-07 7.5620513e-08 0.0000000e+00 
1.2461815e-06 3.2147130e-07 0.0000000e+00 
0.0000000e+00 0.0000000e+00 0.0000000e+00 
0.0000000e+00 0.0000000e+00 0.0000000e+00 
0.0000000e+00 0.0000000e+00 0.0000000e+00 
0.0000000e+00 0.0000000e+00 0.0000000e+00 
0.0000000e+00 0.0000000e+00 0.0000000e+00 
TOTAL_DISPLACEMENT 3 101  float
0.0000000e+00 0.0000000e+00 0.0000000e+00 
0.0000000e+00 0.0000000e+00 0.0000000e+00 
0.0000000e+00 0.0000000e+00 0.0000000e+00 
-1.3189772e-04 -2.5571388e-04 0.0000000e+00 
0.0000000e+00 0.0000000e+00 0.0000000e+00 
0.0000000e+00 0.0000000e+00 0.0000000e+00 
-2.3233837e-04 -7.0201088e-04 0.0000000e+00 
-1.1478549e-04 -5.7765917e-04 0.0000000e+00 
0.0000000e+00 0.0000000e+00 0.0000000e+00 
0.0000000e+00 0.0000000e+00 0.0000000e+00 
-5.7673857e-05 -5.7643122e-04 0.0000000e+00 
-6.0051345e-05 -1.4547326e-03 0.0000000e+00 
5.3519521e-05 -6.0725393e-04 0.0000000e+00 
-1.1481596e-04 -2.1216308e-03 0.0000000e+00 
0.0000000e+00 0.0000000e+00 0.0000000e+00 
0.0000000e+00 0.0000000e+00 0.0000000e+00 
4.8826993e-04 -6.3719047e-04 0.0000000e+00 
2.1318292e-04 -1.2601413e-03 0.0000000e+00 
6.4446137e-04 -2.0786955e-03 0.0000000e+00 
2.0865959e-04 -2.2462865e-03 0.0000000e+00 
1.6144125e-04 -5.3660048e-04 0.0000000e+00 
2.2254011e-05 -4.0482194e-03 0.0000000e+00 
0.0000000e+00 0.0000000e+00 0.0000000e+00 
6.0130678e-05 -1.2003123e-03 0.0000000e+00 
1.7609447e-04 -8.1519253e-04 0.0000000e+00 
1.3797529e-04 -3.9625599e-04 0.0000000e+00 
-4.6709855e-04 -1.8181332e-03 0.0000000e+00 
0.0000000e+00 0.0000000e+00 0.0000000e+00 
-2.8074517e-05 -8.3378842e-04 0.0000000e+00 
-2.8157709e-04 -9.9511375e-04 0.0000000e+00 
8.1592661e-05 -6.7131891e-04 0.0000000e+00 
1.1801651e-04 -3.2381457e-04 0.0000000e+00 
0.0000000e+00 0.0000000e+00 0.0000000e+00 
-6.5668428e-05 -9.9120848e-04 0.0000000e+00 
-6.5054825e-05 -9.5262023e-04 0.0000000e+00 
9.7557691e-05 -6.3519430e-04 0.0000000e+00 
1.3338917e-04 -2.5150256e-04 0.0000000e+00 
0.0000000e+00 0.0000000e+00 0.0000000e+00 
-1.6972149e-04 -1.4654491e-03 0.0000000e+00 
5.0156053e-05 -7.8902667e-04 0.0000000e+00 
1.4000054e-04 -4.1190244e-04 0.0000000e+00 
1.2894251e-04 -1.5549285e-04 0.0000000e+00 
-2.8986545e-04 -5.7372748e-04 0.0000000e+00 
0.0000000e+00 0.0000000e+00 0.0000000e+00 
1.0469093e-05 -3.3472403e-04 0.0000000e+00 
1.1439896e-04 -1.8525730e-04 0.0000000e+00 
9.8233526e-05 -7.3838404e-05 0.0000000e+00 
-1.9357166e-04 -2.1926743e-04 0.0000000e+00 
0.0000000e+00 0.0000000e+00 0.0000000e+00 
-4.5238485e-06 -1.1593020e-04 0.0000000e+00 
6.7621251e-05 -6.1069295e-05 0.0000000e+00 
6.3781896e-05 -2.6364060e-05 0.0000000e+00 
-9.9585508e-05 -6.6246903e-05 0.0000000e+00 
-4.8238148e-06 -2.6265227e-05 0.0000000e+00 
0.0000000e+00 0.0000000e+00 0.0000000e+00 
3.5981990e-05 -9.6600843e-06 0.0000000e+00 
3.7880443e-05 -5.3806825e-06 0.0000000e+00 
-4.7183155e-05 -9.9450635e-06 0.0000000e+00 
-3.2142225e-07 5.3450649e-06 0.0000000e+00 
0.0000000e+00 0.0000000e+00 0.0000000e+00 
2.4905554e-05 4.6476912e-06 0.0000000e+00 
1.8405173e-05 4.9794863e-07 0.0000000e+00 
-1.3545946e-05 8.2767374e-06 0.0000000e+00 
6.5411587e-06 1.1125291e-05 0.0000000e+00 
0.0000000e+00 0.0000000e+00 0.0000000e+00 
1.5334381e-05 6.6625271e-06 0.0000000e+00 
9.3193084e-06 2.0186505e-06 0.0000000e+00 
-1.4050363e-06 1.0847532e-05 0.0000000e+00 
6.0669968e-06 9.9891240e-06 0.0000000e+00 
0.0000000e+00 0.0000000e+00 0.0000000e+00 
8.5450783e-06 5.2067508e-06 0.0000000e+00 
4.6617301e-06 1.6216196e-06 0.0000000e+00 
5.2379492e-06 8.7386188e-06 0.0000000e+00 
5.2452506e-06 6.6591533e-06 0.0000000e+00 
0.0000000e+00 0.0000000e+00 0.0000000e+00 
4.5694296e-06 3.4416589e-06 0.0000000e+00 
2.3127529e-06 1.0638192e-06 0.0000000e+00 
6.0019674e-06 5.6624149e-06 0.0000000e+00 
4.2826646e-06 3.8201274e-06 0.0000000e+00 
0.0000000e+00 0.0000000e+00 0.0000000e+00 
2.8291417e-06 1.7327336e-06 0.0000000e+00 
5.5278269e-06 3.2011087e-06 0.0000000e+00 
1.3189555e-06 5.0971664e-07 0.0000000e+00 
3.3253186e-06 1.7835911e-06 0.0000000e+00 
0.0000000e+00 0.0000000e+00 0.0000000e+00 
1.7755019e-06 7.1112646e-07 0.0000000e+00 
4.0664195e-06 1.6262555e-06 0.0000000e+00 
7.4806650e-07 1.4745726e-07 0.0000000e+00 
2.3017321e-06 7.1743642e-07 0.0000000e+00 
0.0000000e+00 0.0000000e+00 0.0000000e+00 
2.6058833e-06 7.6619801e-07 0.0000000e+00 
8.2540538e-07 1.5635599e-08 0.0000000e+00 
0.0000000e+00 0.0000000e+00 0.0000000e+00 
2.8301943e-07 -7.9726377e-08 0.0000000e+00 
9.1659740e-07 7.5620513e-08 0.0000000e+00 
1.2461815e-06 3.2147130e-07 0.0000000e+00 
0.0000000e+00 0.0000000e+00 0.0000000e+00 
0.0000000e+00 0.0000000e+00 0.0000000e+00 
0.0000000e+00 0.0000000e+00 0.0000000e+00 
0.0000000e+00 0.0000000e+00 0.0000000e+00 
0.0000000e+00 0.0000000e+00 0.0000000e+00 
CELL_DATA 38
FIELD FieldData 0
