# vtk DataFile Version 4.0
vtk output
ASCII
DATASET UNSTRUCTURED_GRID
POINTS 101 float
0.0000000e+00 0.0000000e+00 0.0000000e+00 
0.0000000e+00 2.5000000e-01 0.0000000e+00 
2.5000000e-01 0.0000000e+00 0.0000000e+00 
2.5000000e-01 2.5000000e-01 0.0000000e+00 
0.0000000e+00 5.0000000e-01 0.0000000e+00 
5.0000000e-01 0.0000000e+00 0.0000000e+00 
3.5416666e-01 5.0558227e-01 0.0000000e+00 
6.0416669e-01 2.5558227e-01 0.0000000e+00 
0.0000000e+00 7.5000000e-01 0.0000000e+00 
7.5000000e-01 0.0000000e+00 0.0000000e+00 
2.5000000e-01 7.5000000e-01 0.0000000e+00 
7.0833331e-01 5.1116455e-01 0.0000000e+00 
8.5416669e-01 2.5558227e-01 0.0000000e+00 
6.0416669e-01 7.5558227e-01 0.0000000e+00 
0.0000000e+00 1.0000000e+00 0.0000000e+00 
1.0000000e+00 0.0000000e+00 0.0000000e+00 
2.5000000e-01 1.0000000e+00 0.0000000e+00 
9.7916669e-01 5.3907591e-01 0.0000000e+00 
5.0000000e-01 1.0000000e+00 0.0000000e+00 
8.5416669e-01 7.5558227e-01 0.0000000e+00 
1.1250000e+00 2.8349364e-01 0.0000000e+00 
7.5000000e-01 1.0000000e+00 0.0000000e+00 
1.2500000e+00 0.0000000e+00 0.0000000e+00 
1.1250000e+00 7.8349364e-01 0.0000000e+00 
1.2500000e+00 5.6698728e-01 0.0000000e+00 
1.3750000e+00 2.8349364e-01 0.0000000e+00 
1.0000000e+00 1.0000000e+00 0.0000000e+00 
1.5000000e+00 0.0000000e+00 0.0000000e+00 
1.3750000e+00 7.8349364e-01 0.0000000e+00 
1.2500000e+00 1.0000000e+00 0.0000000e+00 
1.5000000e+00 5.6698728e-01 0.0000000e+00 
1.6250000e+00 2.8349364e-01 0.0000000e+00 
1.7500000e+00 0.0000000e+00 0.0000000e+00 
1.5000000e+00 1.0000000e+00 0.0000000e+00 
1.6250000e+00 7.8349364e-01 0.0000000e+00 
1.7500000e+00 5.6698728e-01 0.0000000e+00 
1.8750000e+00 2.8349364e-01 0.0000000e+00 
2.0000000e+00 0.0000000e+00 0.0000000e+00 
1.7500000e+00 1.0000000e+00 0.0000000e+00 
1.8750000e+00 7.8349364e-01 0.0000000e+00 
2.0000000e+00 5.6698728e-01 0.0000000e+00 
2.1250000e+00 2.8349364e-01 0.0000000e+00 
2.0000000e+00 1.0000000e+00 0.0000000e+00 
2.2500000e+00 0.0000000e+00 0.0000000e+00 
2.1250000e+00 7.8349364e-01 0.0000000e+00 
2.2500000e+00 5.6698728e-01 0.0000000e+00 
2.3750000e+00 2.8349364e-01 0.0000000e+00 
2.2500000e+00 1.0000000e+00 0.0000000e+00 
2.5000000e+00 0.0000000e+00 0.0000000e+00 
2.3750000e+00 7.8349364e-01 0.0000000e+00 
2.5000000e+00 5.6698728e-01 0.0000000e+00 
2.6250000e+00 2.8349364e-01 0.0000000e+00 
2.5000000e+00 1.0000000e+00 0.0000000e+00 
2.6250000e+00 7.8349364e-01 0.0000000e+00 
2.7500000e+00 0.0000000e+00 0.0000000e+00 
2.7500000e+00 5.6698728e-01 0.0000000e+00 
2.8750000e+00 2.8349364e-01 0.0000000e+00 
2.7500000e+00 1.0000000e+00 0.0000000e+00 
2.8750000e+00 7.8349364e-01 0.0000000e+00 
3.0000000e+00 0.0000000e+00 0.0000000e+00 
3.0000000e+00 5.0000000e-01 0.0000000e+00 
3.1250000e+00 2.1650635e-01 0.0000000e+00 
3.0000000e+00 1.0000000e+00 0.0000000e+00 
3.1250000e+00 7.1650636e-01 0.0000000e+00 
3.2500000e+00 0.0000000e+00 0.0000000e+00 
3.2500000e+00 4.3301269e-01 0.0000000e+00 
3.3750000e+00 2.1650635e-01 0.0000000e+00 
3.2500000e+00 1.0000000e+00 0.0000000e+00 
3.3750000e+00 7.1650636e-01 0.0000000e+00 
3.5000000e+00 0.0000000e+00 0.0000000e+00 
3.5000000e+00 4.3301269e-01 0.0000000e+00 
3.6250000e+00 2.1650635e-01 0.0000000e+00 
3.5000000e+00 1.0000000e+00 0.0000000e+00 
3.6250000e+00 7.1650636e-01 0.0000000e+00 
3.7500000e+00 0.0000000e+00 0.0000000e+00 
3.7500000e+00 4.3301269e-01 0.0000000e+00 
3.8750000e+00 2.1650635e-01 0.0000000e+00 
3.7500000e+00 1.0000000e+00 0.0000000e+00 
3.8750000e+00 7.1650636e-01 0.0000000e+00 
4.0000000e+00 0.0000000e+00 0.0000000e+00 
4.0208335e+00 4.6092409e-01 0.0000000e+00 
4.0000000e+00 1.0000000e+00 0.0000000e+00 
4.1458335e+00 2.4441773e-01 0.0000000e+00 
4.1458335e+00 7.4441773e-01 0.0000000e+00 
4.2500000e+00 0.0000000e+00 0.0000000e+00 
4.2916665e+00 4.8883545e-01 0.0000000e+00 
4.2500000e+00 1.0000000e+00 0.0000000e+00 
4.3958335e+00 2.4441773e-01 0.0000000e+00 
4.3958335e+00 7.4441773e-01 0.0000000e+00 
4.5000000e+00 0.0000000e+00 0.0000000e+00 
4.5000000e+00 1.0000000e+00 0.0000000e+00 
4.6458335e+00 4.9441773e-01 0.0000000e+00 
4.7500000e+00 0.0000000e+00 0.0000000e+00 
4.7500000e+00 2.5000000e-01 0.0000000e+00 
4.7500000e+00 7.5000000e-01 0.0000000e+00 
4.7500000e+00 1.0000000e+00 0.0000000e+00 
5.0000000e+00 0.0000000e+00 0.0000000e+00 
5.0000000e+00 2.5000000e-01 0.0000000e+00 
5.0000000e+00 5.0000000e-01 0.0000000e+00 
5.0000000e+00 7.5000000e-01 0.0000000e+00 
5.0000000e+00 1.0000000e+00 0.0000000e+00 

CELLS 38 266
6 0 5 4 2 3 1
6 79 89 85 84 87 82
6 62 52 55 57 53 58
6 85 89 98 87 93 91
6 79 85 75 82 80 76
6 55 52 45 53 49 50
6 75 85 81 80 83 78
6 79 75 69 76 71 74
6 45 52 42 49 47 44
6 55 45 48 50 46 51
6 69 75 65 71 70 66
6 65 75 72 70 73 68
6 69 65 59 66 61 64
6 59 65 55 61 60 56
6 37 48 45 43 46 41
6 100 90 98 95 94 99
6 26 18 11 21 13 19
6 11 18 4 13 10 6
6 26 11 24 19 17 23
6 24 11 15 17 12 20
6 26 24 33 23 28 29
6 33 24 35 28 30 34
6 35 24 27 30 25 31
6 33 35 42 34 39 38
6 42 35 45 39 40 44
6 45 35 37 40 36 41
6 15 27 24 22 25 20
6 96 98 89 97 93 92
6 81 72 75 77 73 78
6 14 4 18 8 10 16
6 5 15 11 9 12 7
6 48 59 55 54 56 51
6 90 81 85 86 83 88
6 27 37 35 32 36 31
6 72 62 65 67 63 68
6 62 55 65 58 60 63
6 90 85 98 88 91 94
6 5 11 4 7 6 3

CELL_TYPES 38
22
22
22
22
22
22
22
22
22
22
22
22
22
22
22
22
22
22
22
22
22
22
22
22
22
22
22
22
22
22
22
22
22
22
22
22
22
22
POINT_DATA 101
FIELD FieldData 2
DISPLACEMENT 3 101  float
0.0000000e+00 0.0000000e+00 0.0000000e+00 
0.0000000e+00 0.0000000e+00 0.0000000e+00 
0.0000000e+00 0.0000000e+00 0.0000000e+00 
-2.7169135e-06 1.9840204e-06 0.0000000e+00 
0.0000000e+00 0.0000000e+00 0.0000000e+00 
0.0000000e+00 0.0000000e+00 0.0000000e+00 
-4.0570221e-06 7.4239679e-06 0.0000000e+00 
-1.2402974e-05 5.4175262e-06 0.0000000e+00 
0.0000000e+00 0.0000000e+00 0.0000000e+00 
0.0000000e+00 0.0000000e+00 0.0000000e+00 
-1.2390640e-06 6.2740555e-06 0.0000000e+00 
-1.3457909e-05 1.6005159e-05 0.0000000e+00 
-2.7947559e-05 4.3930963e-06 0.0000000e+00 
-1.3372901e-06 1.7978915e-05 0.0000000e+00 
0.0000000e+00 0.0000000e+00 0.0000000e+00 
0.0000000e+00 0.0000000e+00 0.0000000e+00 
-3.3677536e-06 6.3436964e-06 0.0000000e+00 
-2.7937433e-05 1.5941756e-05 0.0000000e+00 
-2.8640866e-06 1.4697235e-05 0.0000000e+00 
1.5214891e-06 2.3363638e-05 0.0000000e+00 
-6.0184775e-05 -4.5477555e-06 0.0000000e+00 
8.7358139e-06 2.0614083e-05 0.0000000e+00 
0.0000000e+00 0.0000000e+00 0.0000000e+00 
1.3199612e-05 1.7398263e-05 0.0000000e+00 
-5.0739684e-05 -5.1535999e-06 0.0000000e+00 
-1.0810017e-04 -3.9937931e-05 0.0000000e+00 
3.1375013e-05 1.9640620e-05 0.0000000e+00 
0.0000000e+00 0.0000000e+00 0.0000000e+00 
2.6335829e-05 -2.8361977e-05 0.0000000e+00 
9.1450420e-05 -5.7533121e-06 0.0000000e+00 
-1.0839649e-04 -8.9371599e-05 0.0000000e+00 
-1.7396048e-04 -1.2778705e-04 0.0000000e+00 
0.0000000e+00 0.0000000e+00 0.0000000e+00 
1.8666625e-04 -8.9966707e-05 0.0000000e+00 
3.5573808e-05 -1.6928106e-04 0.0000000e+00 
-2.0249702e-04 -3.1819250e-04 0.0000000e+00 
-2.3234794e-04 -2.9507189e-04 0.0000000e+00 
0.0000000e+00 0.0000000e+00 0.0000000e+00 
3.8990390e-04 -3.2761091e-04 0.0000000e+00 
1.3198637e-05 -5.1694439e-04 0.0000000e+00 
-2.7258176e-04 -7.8028219e-04 0.0000000e+00 
-2.2483278e-04 -5.3156383e-04 0.0000000e+00 
6.6627521e-04 -7.9139625e-04 0.0000000e+00 
0.0000000e+00 0.0000000e+00 0.0000000e+00 
-1.5942178e-04 -1.4697359e-03 0.0000000e+00 
-2.0677072e-04 -1.4192245e-03 0.0000000e+00 
-9.3445364e-05 -7.1076158e-04 0.0000000e+00 
5.5554655e-04 -2.7706604e-03 0.0000000e+00 
0.0000000e+00 0.0000000e+00 0.0000000e+00 
-1.7363316e-04 -2.7717282e-03 0.0000000e+00 
3.9873670e-05 -1.6933961e-03 0.0000000e+00 
8.6901200e-05 -6.8590220e-04 0.0000000e+00 
-1.3439528e-04 -4.7994093e-03 0.0000000e+00 
2.6464902e-04 -2.4302038e-03 0.0000000e+00 
0.0000000e+00 0.0000000e+00 0.0000000e+00 
1.9019312e-04 -1.2213689e-03 0.0000000e+00 
1.4542356e-04 -5.2190328e-04 0.0000000e+00 
-5.0555798e-04 -1.7822620e-03 0.0000000e+00 
7.2907715e-05 -1.1625753e-03 0.0000000e+00 
0.0000000e+00 0.0000000e+00 0.0000000e+00 
1.4925281e-04 -7.3630962e-04 0.0000000e+00 
1.1490433e-04 -2.9939567e-04 0.0000000e+00 
-2.8237051e-04 -9.2570309e-04 0.0000000e+00 
-1.4834135e-05 -8.3481183e-04 0.0000000e+00 
0.0000000e+00 0.0000000e+00 0.0000000e+00 
1.3341494e-04 -5.3275964e-04 0.0000000e+00 
1.0739392e-04 -2.4530396e-04 0.0000000e+00 
-1.5879044e-04 -1.1628608e-03 0.0000000e+00 
-3.4473927e-05 -9.1226608e-04 0.0000000e+00 
0.0000000e+00 0.0000000e+00 0.0000000e+00 
1.3232813e-04 -4.4843671e-04 0.0000000e+00 
1.1191862e-04 -1.8211245e-04 0.0000000e+00 
-2.0584340e-04 -1.6018818e-03 0.0000000e+00 
9.5316063e-05 -7.1098289e-04 0.0000000e+00 
0.0000000e+00 0.0000000e+00 0.0000000e+00 
1.3164342e-04 -2.8031380e-04 0.0000000e+00 
9.9597157e-05 -1.0817986e-04 0.0000000e+00 
-2.5961350e-04 -5.7094701e-04 0.0000000e+00 
6.0288821e-05 -3.0456088e-04 0.0000000e+00 
0.0000000e+00 0.0000000e+00 0.0000000e+00 
1.0645199e-04 -1.3658099e-04 0.0000000e+00 
-2.0026507e-04 -1.9273748e-04 0.0000000e+00 
7.7507932e-05 -5.5284101e-05 0.0000000e+00 
9.1881175e-06 -9.2868264e-05 0.0000000e+00 
0.0000000e+00 0.0000000e+00 0.0000000e+00 
6.4294458e-05 -4.4921890e-05 0.0000000e+00 
-1.1033170e-04 -6.0288199e-05 0.0000000e+00 
4.7762172e-05 -2.0751617e-05 0.0000000e+00 
1.3019529e-06 -1.7412105e-05 0.0000000e+00 
0.0000000e+00 0.0000000e+00 0.0000000e+00 
-4.4355238e-05 -4.7154290e-06 0.0000000e+00 
2.3477687e-05 2.8627660e-08 0.0000000e+00 
0.0000000e+00 0.0000000e+00 0.0000000e+00 
1.5623402e-05 -2.0639256e-06 0.0000000e+00 
-1.4086635e-06 7.3747592e-06 0.0000000e+00 
-1.6411635e-05 4.0979203e-06 0.0000000e+00 
0.0000000e+00 0.0000000e+00 0.0000000e+00 
0.0000000e+00 0.0000000e+00 0.0000000e+00 
0.0000000e+00 0.0000000e+00 0.0000000e+00 
0.0000000e+00 0.0000000e+00 0.0000000e+00 
0.0000000e+00 0.0000000e+00 0.0000000e+00 
TOTAL_DISPLACEMENT 3 101  float
0.0000000e+00 0.0000000e+00 0.0000000e+00 
0.0000000e+00 0.0000000e+00 0.0000000e+00 
0.0000000e+00 0.0000000e+00 0.0000000e+00 
-2.7169135e-06 1.9840204e-06 0.0000000e+00 
0.0000000e+00 0.0000000e+00 0.0000000e+00 
0.0000000e+00 0.0000000e+00 0.0000000e+00 
-4.0570221e-06 7.4239679e-06 0.0000000e+00 
-1.2402974e-05 5.4175262e-06 0.0000000e+00 
0.0000000e+00 0.0000000e+00 0.0000000e+00 
0.0000000e+00 0.0000000e+00 0.0000000e+00 
-1.2390640e-06 6.2740555e-06 0.0000000e+00 
-1.3457909e-05 1.6005159e-05 0.0000000e+00 
-2.7947559e-05 4.3930963e-06 0.0000000e+00 
-1.3372901e-06 1.7978915e-05 0.0000000e+00 
0.0000000e+00 0.0000000e+00 0.0000000e+00 
0.0000000e+00 0.0000000e+00 0.0000000e+00 
-3.3677536e-06 6.3436964e-06 0.0000000e+00 
-2.7937433e-05 1.5941756e-05 0.0000000e+00 
-2.8640866e-06 1.4697235e-05 0.0000000e+00 
1.5214891e-06 2.3363638e-05 0.0000000e+00 
-6.0184775e-05 -4.5477555e-06 0.0000000e+00 
8.7358139e-06 2.0614083e-05 0.0000000e+00 
0.0000000e+00 0.0000000e+00 0.0000000e+00 
1.3199612e-05 1.7398263e-05 0.0000000e+00 
-5.0739684e-05 -5.1535999e-06 0.0000000e+00 
-1.0810017e-04 -3.9937931e-05 0.0000000e+00 
3.1375013e-05 1.9640620e-05 0.0000000e+00 
0.0000000e+00 0.0000000e+00 0.0000000e+00 
2.6335829e-05 -2.8361977e-05 0.0000000e+00 
9.1450420e-05 -5.7533121e-06 0.0000000e+00 
-1.0839649e-04 -8.9371599e-05 0.0000000e+00 
-1.7396048e-04 -1.2778705e-04 0.0000000e+00 
0.0000000e+00 0.0000000e+00 0.0000000e+00 
1.8666625e-04 -8.9966707e-05 0.0000000e+00 
3.5573808e-05 -1.6928106e-04 0.0000000e+00 
-2.0249702e-04 -3.1819250e-04 0.0000000e+00 
-2.3234794e-04 -2.9507189e-04 0.0000000e+00 
0.0000000e+00 0.0000000e+00 0.0000000e+00 
3.8990390e-04 -3.2761091e-04 0.0000000e+00 
1.3198637e-05 -5.1694439e-04 0.0000000e+00 
-2.7258176e-04 -7.8028219e-04 0.0000000e+00 
-2.2483278e-04 -5.3156383e-04 0.0000000e+00 
6.6627521e-04 -7.9139625e-04 0.0000000e+00 
0.0000000e+00 0.0000000e+00 0.0000000e+00 
-1.5942178e-04 -1.4697359e-03 0.0000000e+00 
-2.0677072e-04 -1.4192245e-03 0.0000000e+00 
-9.3445364e-05 -7.1076158e-04 0.0000000e+00 
5.5554655e-04 -2.7706604e-03 0.0000000e+00 
0.0000000e+00 0.0000000e+00 0.0000000e+00 
-1.7363316e-04 -2.7717282e-03 0.0000000e+00 
3.9873670e-05 -1.6933961e-03 0.0000000e+00 
8.6901200e-05 -6.8590220e-04 0.0000000e+00 
-1.3439528e-04 -4.7994093e-03 0.0000000e+00 
2.6464902e-04 -2.4302038e-03 0.0000000e+00 
0.0000000e+00 0.0000000e+00 0.0000000e+00 
1.9019312e-04 -1.2213689e-03 0.0000000e+00 
1.4542356e-04 -5.2190328e-04 0.0000000e+00 
-5.0555798e-04 -1.7822620e-03 0.0000000e+00 
7.2907715e-05 -1.1625753e-03 0.0000000e+00 
0.0000000e+00 0.0000000e+00 0.0000000e+00 
1.4925281e-04 -7.3630962e-04 0.0000000e+00 
1.1490433e-04 -2.9939567e-04 0.0000000e+00 
-2.8237051e-04 -9.2570309e-04 0.0000000e+00 
-1.4834135e-05 -8.3481183e-04 0.0000000e+00 
0.0000000e+00 0.0000000e+00 0.0000000e+00 
1.3341494e-04 -5.3275964e-04 0.0000000e+00 
1.0739392e-04 -2.4530396e-04 0.0000000e+00 
-1.5879044e-04 -1.1628608e-03 0.0000000e+00 
-3.4473927e-05 -9.1226608e-04 0.0000000e+00 
0.0000000e+00 0.0000000e+00 0.0000000e+00 
1.3232813e-04 -4.4843671e-04 0.0000000e+00 
1.1191862e-04 -1.8211245e-04 0.0000000e+00 
-2.0584340e-04 -1.6018818e-03 0.0000000e+00 
9.5316063e-05 -7.1098289e-04 0.0000000e+00 
0.0000000e+00 0.0000000e+00 0.0000000e+00 
1.3164342e-04 -2.8031380e-04 0.0000000e+00 
9.9597157e-05 -1.0817986e-04 0.0000000e+00 
-2.5961350e-04 -5.7094701e-04 0.0000000e+00 
6.0288821e-05 -3.0456088e-04 0.0000000e+00 
0.0000000e+00 0.0000000e+00 0.0000000e+00 
1.0645199e-04 -1.3658099e-04 0.0000000e+00 
-2.0026507e-04 -1.9273748e-04 0.0000000e+00 
7.7507932e-05 -5.5284101e-05 0.0000000e+00 
9.1881175e-06 -9.2868264e-05 0.0000000e+00 
0.0000000e+00 0.0000000e+00 0.0000000e+00 
6.4294458e-05 -4.4921890e-05 0.0000000e+00 
-1.1033170e-04 -6.0288199e-05 0.0000000e+00 
4.7762172e-05 -2.0751617e-05 0.0000000e+00 
1.3019529e-06 -1.7412105e-05 0.0000000e+00 
0.0000000e+00 0.0000000e+00 0.0000000e+00 
-4.4355238e-05 -4.7154290e-06 0.0000000e+00 
2.3477687e-05 2.8627660e-08 0.0000000e+00 
0.0000000e+00 0.0000000e+00 0.0000000e+00 
1.5623402e-05 -2.0639256e-06 0.0000000e+00 
-1.4086635e-06 7.3747592e-06 0.0000000e+00 
-1.6411635e-05 4.0979203e-06 0.0000000e+00 
0.0000000e+00 0.0000000e+00 0.0000000e+00 
0.0000000e+00 0.0000000e+00 0.0000000e+00 
0.0000000e+00 0.0000000e+00 0.0000000e+00 
0.0000000e+00 0.0000000e+00 0.0000000e+00 
0.0000000e+00 0.0000000e+00 0.0000000e+00 
CELL_DATA 38
FIELD FieldData 0
