# vtk DataFile Version 4.0
vtk output
ASCII
DATASET UNSTRUCTURED_GRID
POINTS 101 float
0.0000000e+00 0.0000000e+00 0.0000000e+00 
0.0000000e+00 2.5000000e-01 0.0000000e+00 
2.5000000e-01 0.0000000e+00 0.0000000e+00 
2.5000000e-01 2.5000000e-01 0.0000000e+00 
0.0000000e+00 5.0000000e-01 0.0000000e+00 
5.0000000e-01 0.0000000e+00 0.0000000e+00 
3.5416666e-01 5.0558227e-01 0.0000000e+00 
6.0416669e-01 2.5558227e-01 0.0000000e+00 
0.0000000e+00 7.5000000e-01 0.0000000e+00 
7.5000000e-01 0.0000000e+00 0.0000000e+00 
2.5000000e-01 7.5000000e-01 0.0000000e+00 
7.0833331e-01 5.1116455e-01 0.0000000e+00 
8.5416669e-01 2.5558227e-01 0.0000000e+00 
6.0416669e-01 7.5558227e-01 0.0000000e+00 
0.0000000e+00 1.0000000e+00 0.0000000e+00 
1.0000000e+00 0.0000000e+00 0.0000000e+00 
2.5000000e-01 1.0000000e+00 0.0000000e+00 
9.7916669e-01 5.3907591e-01 0.0000000e+00 
5.0000000e-01 1.0000000e+00 0.0000000e+00 
8.5416669e-01 7.5558227e-01 0.0000000e+00 
1.1250000e+00 2.8349364e-01 0.0000000e+00 
7.5000000e-01 1.0000000e+00 0.0000000e+00 
1.2500000e+00 0.0000000e+00 0.0000000e+00 
1.1250000e+00 7.8349364e-01 0.0000000e+00 
1.2500000e+00 5.6698728e-01 0.0000000e+00 
1.3750000e+00 2.8349364e-01 0.0000000e+00 
1.0000000e+00 1.0000000e+00 0.0000000e+00 
1.5000000e+00 0.0000000e+00 0.0000000e+00 
1.3750000e+00 7.8349364e-01 0.0000000e+00 
1.2500000e+00 1.0000000e+00 0.0000000e+00 
1.5000000e+00 5.6698728e-01 0.0000000e+00 
1.6250000e+00 2.8349364e-01 0.0000000e+00 
1.7500000e+00 0.0000000e+00 0.0000000e+00 
1.5000000e+00 1.0000000e+00 0.0000000e+00 
1.6250000e+00 7.8349364e-01 0.0000000e+00 
1.7500000e+00 5.6698728e-01 0.0000000e+00 
1.8750000e+00 2.8349364e-01 0.0000000e+00 
2.0000000e+00 0.0000000e+00 0.0000000e+00 
1.7500000e+00 1.0000000e+00 0.0000000e+00 
1.8750000e+00 7.8349364e-01 0.0000000e+00 
2.0000000e+00 5.6698728e-01 0.0000000e+00 
2.1250000e+00 2.8349364e-01 0.0000000e+00 
2.0000000e+00 1.0000000e+00 0.0000000e+00 
2.2500000e+00 0.0000000e+00 0.0000000e+00 
2.1250000e+00 7.8349364e-01 0.0000000e+00 
2.2500000e+00 5.6698728e-01 0.0000000e+00 
2.3750000e+00 2.8349364e-01 0.0000000e+00 
2.2500000e+00 1.0000000e+00 0.0000000e+00 
2.5000000e+00 0.0000000e+00 0.0000000e+00 
2.3750000e+00 7.8349364e-01 0.0000000e+00 
2.5000000e+00 5.6698728e-01 0.0000000e+00 
2.6250000e+00 2.8349364e-01 0.0000000e+00 
2.5000000e+00 1.0000000e+00 0.0000000e+00 
2.6250000e+00 7.8349364e-01 0.0000000e+00 
2.7500000e+00 0.0000000e+00 0.0000000e+00 
2.7500000e+00 5.6698728e-01 0.0000000e+00 
2.8750000e+00 2.8349364e-01 0.0000000e+00 
2.7500000e+00 1.0000000e+00 0.0000000e+00 
2.8750000e+00 7.8349364e-01 0.0000000e+00 
3.0000000e+00 0.0000000e+00 0.0000000e+00 
3.0000000e+00 5.0000000e-01 0.0000000e+00 
3.1250000e+00 2.1650635e-01 0.0000000e+00 
3.0000000e+00 1.0000000e+00 0.0000000e+00 
3.1250000e+00 7.1650636e-01 0.0000000e+00 
3.2500000e+00 0.0000000e+00 0.0000000e+00 
3.2500000e+00 4.3301269e-01 0.0000000e+00 
3.3750000e+00 2.1650635e-01 0.0000000e+00 
3.2500000e+00 1.0000000e+00 0.0000000e+00 
3.3750000e+00 7.1650636e-01 0.0000000e+00 
3.5000000e+00 0.0000000e+00 0.0000000e+00 
3.5000000e+00 4.3301269e-01 0.0000000e+00 
3.6250000e+00 2.1650635e-01 0.0000000e+00 
3.5000000e+00 1.0000000e+00 0.0000000e+00 
3.6250000e+00 7.1650636e-01 0.0000000e+00 
3.7500000e+00 0.0000000e+00 0.0000000e+00 
3.7500000e+00 4.3301269e-01 0.0000000e+00 
3.8750000e+00 2.1650635e-01 0.0000000e+00 
3.7500000e+00 1.0000000e+00 0.0000000e+00 
3.8750000e+00 7.1650636e-01 0.0000000e+00 
4.0000000e+00 0.0000000e+00 0.0000000e+00 
4.0208335e+00 4.6092409e-01 0.0000000e+00 
4.0000000e+00 1.0000000e+00 0.0000000e+00 
4.1458335e+00 2.4441773e-01 0.0000000e+00 
4.1458335e+00 7.4441773e-01 0.0000000e+00 
4.2500000e+00 0.0000000e+00 0.0000000e+00 
4.2916665e+00 4.8883545e-01 0.0000000e+00 
4.2500000e+00 1.0000000e+00 0.0000000e+00 
4.3958335e+00 2.4441773e-01 0.0000000e+00 
4.3958335e+00 7.4441773e-01 0.0000000e+00 
4.5000000e+00 0.0000000e+00 0.0000000e+00 
4.5000000e+00 1.0000000e+00 0.0000000e+00 
4.6458335e+00 4.9441773e-01 0.0000000e+00 
4.7500000e+00 0.0000000e+00 0.0000000e+00 
4.7500000e+00 2.5000000e-01 0.0000000e+00 
4.7500000e+00 7.5000000e-01 0.0000000e+00 
4.7500000e+00 1.0000000e+00 0.0000000e+00 
5.0000000e+00 0.0000000e+00 0.0000000e+00 
5.0000000e+00 2.5000000e-01 0.0000000e+00 
5.0000000e+00 5.0000000e-01 0.0000000e+00 
5.0000000e+00 7.5000000e-01 0.0000000e+00 
5.0000000e+00 1.0000000e+00 0.0000000e+00 

CELLS 38 266
6 0 5 4 2 3 1
6 79 89 85 84 87 82
6 62 52 55 57 53 58
6 85 89 98 87 93 91
6 79 85 75 82 80 76
6 55 52 45 53 49 50
6 75 85 81 80 83 78
6 79 75 69 76 71 74
6 45 52 42 49 47 44
6 55 45 48 50 46 51
6 69 75 65 71 70 66
6 65 75 72 70 73 68
6 69 65 59 66 61 64
6 59 65 55 61 60 56
6 37 48 45 43 46 41
6 100 90 98 95 94 99
6 26 18 11 21 13 19
6 11 18 4 13 10 6
6 26 11 24 19 17 23
6 24 11 15 17 12 20
6 26 24 33 23 28 29
6 33 24 35 28 30 34
6 35 24 27 30 25 31
6 33 35 42 34 39 38
6 42 35 45 39 40 44
6 45 35 37 40 36 41
6 15 27 24 22 25 20
6 96 98 89 97 93 92
6 81 72 75 77 73 78
6 14 4 18 8 10 16
6 5 15 11 9 12 7
6 48 59 55 54 56 51
6 90 81 85 86 83 88
6 27 37 35 32 36 31
6 72 62 65 67 63 68
6 62 55 65 58 60 63
6 90 85 98 88 91 94
6 5 11 4 7 6 3

CELL_TYPES 38
22
22
22
22
22
22
22
22
22
22
22
22
22
22
22
22
22
22
22
22
22
22
22
22
22
22
22
22
22
22
22
22
22
22
22
22
22
22
POINT_DATA 101
FIELD FieldData 2
DISPLACEMENT 3 101  float
0.0000000e+00 0.0000000e+00 0.0000000e+00 
0.0000000e+00 0.0000000e+00 0.0000000e+00 
0.0000000e+00 0.0000000e+00 0.0000000e+00 
-8.1203034e-08 -3.6777141e-08 0.0000000e+00 
0.0000000e+00 0.0000000e+00 0.0000000e+00 
0.0000000e+00 0.0000000e+00 0.0000000e+00 
-2.0439703e-07 -4.9431378e-08 0.0000000e+00 
-2.0570947e-07 -5.9190079e-08 0.0000000e+00 
0.0000000e+00 0.0000000e+00 0.0000000e+00 
0.0000000e+00 0.0000000e+00 0.0000000e+00 
-1.7629179e-07 -1.3266615e-08 0.0000000e+00 
-4.3905712e-07 -7.1510080e-08 0.0000000e+00 
-3.0628391e-07 -7.2296594e-08 0.0000000e+00 
-4.6587127e-07 -3.1283086e-08 0.0000000e+00 
0.0000000e+00 0.0000000e+00 0.0000000e+00 
0.0000000e+00 0.0000000e+00 0.0000000e+00 
-1.8920576e-07 2.7932959e-08 0.0000000e+00 
-6.7960224e-07 -8.7305096e-08 0.0000000e+00 
-4.0323550e-07 2.8296588e-08 0.0000000e+00 
-7.0297273e-07 -4.2515861e-08 0.0000000e+00 
-4.7638122e-07 -9.2812414e-08 0.0000000e+00 
-6.4589767e-07 2.0302858e-08 0.0000000e+00 
0.0000000e+00 0.0000000e+00 0.0000000e+00 
-1.0296717e-06 -4.6560693e-08 0.0000000e+00 
-9.8386136e-07 -1.0307348e-07 0.0000000e+00 
-6.3239651e-07 -1.0965523e-07 0.0000000e+00 
-9.3213094e-07 2.5278574e-08 0.0000000e+00 
0.0000000e+00 0.0000000e+00 0.0000000e+00 
-1.3884760e-06 -4.8093789e-08 0.0000000e+00 
-1.2859618e-06 2.8691986e-08 0.0000000e+00 
-1.3033650e-06 -1.1162151e-07 0.0000000e+00 
-8.2398896e-07 -1.2107802e-07 0.0000000e+00 
0.0000000e+00 0.0000000e+00 0.0000000e+00 
-1.7262245e-06 5.8073379e-08 0.0000000e+00 
-1.8356338e-06 -3.4951615e-08 0.0000000e+00 
-1.6938626e-06 -1.0170483e-07 0.0000000e+00 
-1.0655128e-06 -1.2006986e-07 0.0000000e+00 
0.0000000e+00 0.0000000e+00 0.0000000e+00 
-2.2973768e-06 1.1048781e-07 0.0000000e+00 
-2.3922337e-06 2.2044556e-08 0.0000000e+00 
-2.1869680e-06 -4.4308830e-08 0.0000000e+00 
-1.3840557e-06 -8.6300766e-08 0.0000000e+00 
-3.0161059e-06 2.4069539e-07 0.0000000e+00 
0.0000000e+00 0.0000000e+00 0.0000000e+00 
-3.0858955e-06 1.6113782e-07 0.0000000e+00 
-2.8039367e-06 1.1456660e-07 0.0000000e+00 
-1.8355917e-06 -5.5792717e-09 0.0000000e+00 
-3.9294150e-06 4.8447248e-07 0.0000000e+00 
0.0000000e+00 0.0000000e+00 0.0000000e+00 
-3.9309002e-06 4.5262587e-07 0.0000000e+00 
-3.6215297e-06 4.0741168e-07 0.0000000e+00 
-2.5183851e-06 1.5085044e-07 0.0000000e+00 
-5.0258645e-06 9.3914127e-07 0.0000000e+00 
-4.9405985e-06 9.9766373e-07 0.0000000e+00 
0.0000000e+00 0.0000000e+00 0.0000000e+00 
-4.7117214e-06 9.5347116e-07 0.0000000e+00 
-3.6372064e-06 3.3995497e-07 0.0000000e+00 
-6.1168939e-06 1.6738011e-06 0.0000000e+00 
-6.1098990e-06 1.8192333e-06 0.0000000e+00 
0.0000000e+00 0.0000000e+00 0.0000000e+00 
-6.1934634e-06 1.3425998e-06 0.0000000e+00 
-4.6494583e-06 2.0190468e-07 0.0000000e+00 
-7.0638694e-06 2.6680787e-06 0.0000000e+00 
-7.4193476e-06 2.5547629e-06 0.0000000e+00 
0.0000000e+00 0.0000000e+00 0.0000000e+00 
-8.6132395e-06 1.3219280e-06 0.0000000e+00 
-7.7361401e-06 -3.1295201e-07 0.0000000e+00 
-6.6184293e-06 3.3181020e-06 0.0000000e+00 
-9.2640403e-06 2.8696991e-06 0.0000000e+00 
0.0000000e+00 0.0000000e+00 0.0000000e+00 
-1.3666626e-05 2.4752777e-07 0.0000000e+00 
-1.2855375e-05 -2.2044160e-06 0.0000000e+00 
-4.8883012e-06 2.8921913e-06 0.0000000e+00 
-1.1815731e-05 7.9745899e-07 0.0000000e+00 
0.0000000e+00 0.0000000e+00 0.0000000e+00 
-2.1414358e-05 -4.6614382e-06 0.0000000e+00 
-2.0618905e-05 -7.4585960e-06 0.0000000e+00 
2.4256462e-06 -2.7802541e-06 0.0000000e+00 
-1.5669119e-05 -8.1282569e-06 0.0000000e+00 
0.0000000e+00 0.0000000e+00 0.0000000e+00 
-3.6060588e-05 -1.9536443e-05 0.0000000e+00 
1.3353426e-05 -1.8157587e-05 0.0000000e+00 
-3.4017576e-05 -2.3407674e-05 0.0000000e+00 
-1.9729992e-05 -3.5921836e-05 0.0000000e+00 
0.0000000e+00 0.0000000e+00 0.0000000e+00 
-5.7542551e-05 -6.1700310e-05 0.0000000e+00 
3.4288674e-05 -5.8238929e-05 0.0000000e+00 
-4.1538551e-05 -5.3527790e-05 0.0000000e+00 
-3.1152700e-05 -9.5684511e-05 0.0000000e+00 
0.0000000e+00 0.0000000e+00 0.0000000e+00 
5.5672899e-05 -1.3095431e-04 0.0000000e+00 
-6.8106681e-05 -1.8501515e-04 0.0000000e+00 
0.0000000e+00 0.0000000e+00 0.0000000e+00 
-4.5912498e-06 -5.8323429e-05 0.0000000e+00 
-5.2934574e-05 -3.8250966e-04 0.0000000e+00 
9.5302268e-05 -8.5485709e-04 0.0000000e+00 
0.0000000e+00 0.0000000e+00 0.0000000e+00 
0.0000000e+00 0.0000000e+00 0.0000000e+00 
0.0000000e+00 0.0000000e+00 0.0000000e+00 
0.0000000e+00 0.0000000e+00 0.0000000e+00 
0.0000000e+00 0.0000000e+00 0.0000000e+00 
TOTAL_DISPLACEMENT 3 101  float
0.0000000e+00 0.0000000e+00 0.0000000e+00 
0.0000000e+00 0.0000000e+00 0.0000000e+00 
0.0000000e+00 0.0000000e+00 0.0000000e+00 
-8.1203034e-08 -3.6777141e-08 0.0000000e+00 
0.0000000e+00 0.0000000e+00 0.0000000e+00 
0.0000000e+00 0.0000000e+00 0.0000000e+00 
-2.0439703e-07 -4.9431378e-08 0.0000000e+00 
-2.0570947e-07 -5.9190079e-08 0.0000000e+00 
0.0000000e+00 0.0000000e+00 0.0000000e+00 
0.0000000e+00 0.0000000e+00 0.0000000e+00 
-1.7629179e-07 -1.3266615e-08 0.0000000e+00 
-4.3905712e-07 -7.1510080e-08 0.0000000e+00 
-3.0628391e-07 -7.2296594e-08 0.0000000e+00 
-4.6587127e-07 -3.1283086e-08 0.0000000e+00 
0.0000000e+00 0.0000000e+00 0.0000000e+00 
0.0000000e+00 0.0000000e+00 0.0000000e+00 
-1.8920576e-07 2.7932959e-08 0.0000000e+00 
-6.7960224e-07 -8.7305096e-08 0.0000000e+00 
-4.0323550e-07 2.8296588e-08 0.0000000e+00 
-7.0297273e-07 -4.2515861e-08 0.0000000e+00 
-4.7638122e-07 -9.2812414e-08 0.0000000e+00 
-6.4589767e-07 2.0302858e-08 0.0000000e+00 
0.0000000e+00 0.0000000e+00 0.0000000e+00 
-1.0296717e-06 -4.6560693e-08 0.0000000e+00 
-9.8386136e-07 -1.0307348e-07 0.0000000e+00 
-6.3239651e-07 -1.0965523e-07 0.0000000e+00 
-9.3213094e-07 2.5278574e-08 0.0000000e+00 
0.0000000e+00 0.0000000e+00 0.0000000e+00 
-1.3884760e-06 -4.8093789e-08 0.0000000e+00 
-1.2859618e-06 2.8691986e-08 0.0000000e+00 
-1.3033650e-06 -1.1162151e-07 0.0000000e+00 
-8.2398896e-07 -1.2107802e-07 0.0000000e+00 
0.0000000e+00 0.0000000e+00 0.0000000e+00 
-1.7262245e-06 5.8073379e-08 0.0000000e+00 
-1.8356338e-06 -3.4951615e-08 0.0000000e+00 
-1.6938626e-06 -1.0170483e-07 0.0000000e+00 
-1.0655128e-06 -1.2006986e-07 0.0000000e+00 
0.0000000e+00 0.0000000e+00 0.0000000e+00 
-2.2973768e-06 1.1048781e-07 0.0000000e+00 
-2.3922337e-06 2.2044556e-08 0.0000000e+00 
-2.1869680e-06 -4.4308830e-08 0.0000000e+00 
-1.3840557e-06 -8.6300766e-08 0.0000000e+00 
-3.0161059e-06 2.4069539e-07 0.0000000e+00 
0.0000000e+00 0.0000000e+00 0.0000000e+00 
-3.0858955e-06 1.6113782e-07 0.0000000e+00 
-2.8039367e-06 1.1456660e-07 0.0000000e+00 
-1.8355917e-06 -5.5792717e-09 0.0000000e+00 
-3.9294150e-06 4.8447248e-07 0.0000000e+00 
0.0000000e+00 0.0000000e+00 0.0000000e+00 
-3.9309002e-06 4.5262587e-07 0.0000000e+00 
-3.6215297e-06 4.0741168e-07 0.0000000e+00 
-2.5183851e-06 1.5085044e-07 0.0000000e+00 
-5.0258645e-06 9.3914127e-07 0.0000000e+00 
-4.9405985e-06 9.9766373e-07 0.0000000e+00 
0.0000000e+00 0.0000000e+00 0.0000000e+00 
-4.7117214e-06 9.5347116e-07 0.0000000e+00 
-3.6372064e-06 3.3995497e-07 0.0000000e+00 
-6.1168939e-06 1.6738011e-06 0.0000000e+00 
-6.1098990e-06 1.8192333e-06 0.0000000e+00 
0.0000000e+00 0.0000000e+00 0.0000000e+00 
-6.1934634e-06 1.3425998e-06 0.0000000e+00 
-4.6494583e-06 2.0190468e-07 0.0000000e+00 
-7.0638694e-06 2.6680787e-06 0.0000000e+00 
-7.4193476e-06 2.5547629e-06 0.0000000e+00 
0.0000000e+00 0.0000000e+00 0.0000000e+00 
-8.6132395e-06 1.3219280e-06 0.0000000e+00 
-7.7361401e-06 -3.1295201e-07 0.0000000e+00 
-6.6184293e-06 3.3181020e-06 0.0000000e+00 
-9.2640403e-06 2.8696991e-06 0.0000000e+00 
0.0000000e+00 0.0000000e+00 0.0000000e+00 
-1.3666626e-05 2.4752777e-07 0.0000000e+00 
-1.2855375e-05 -2.2044160e-06 0.0000000e+00 
-4.8883012e-06 2.8921913e-06 0.0000000e+00 
-1.1815731e-05 7.9745899e-07 0.0000000e+00 
0.0000000e+00 0.0000000e+00 0.0000000e+00 
-2.1414358e-05 -4.6614382e-06 0.0000000e+00 
-2.0618905e-05 -7.4585960e-06 0.0000000e+00 
2.4256462e-06 -2.7802541e-06 0.0000000e+00 
-1.5669119e-05 -8.1282569e-06 0.0000000e+00 
0.0000000e+00 0.0000000e+00 0.0000000e+00 
-3.6060588e-05 -1.9536443e-05 0.0000000e+00 
1.3353426e-05 -1.8157587e-05 0.0000000e+00 
-3.4017576e-05 -2.3407674e-05 0.0000000e+00 
-1.9729992e-05 -3.5921836e-05 0.0000000e+00 
0.0000000e+00 0.0000000e+00 0.0000000e+00 
-5.7542551e-05 -6.1700310e-05 0.0000000e+00 
3.4288674e-05 -5.8238929e-05 0.0000000e+00 
-4.1538551e-05 -5.3527790e-05 0.0000000e+00 
-3.1152700e-05 -9.5684511e-05 0.0000000e+00 
0.0000000e+00 0.0000000e+00 0.0000000e+00 
5.5672899e-05 -1.3095431e-04 0.0000000e+00 
-6.8106681e-05 -1.8501515e-04 0.0000000e+00 
0.0000000e+00 0.0000000e+00 0.0000000e+00 
-4.5912498e-06 -5.8323429e-05 0.0000000e+00 
-5.2934574e-05 -3.8250966e-04 0.0000000e+00 
9.5302268e-05 -8.5485709e-04 0.0000000e+00 
0.0000000e+00 0.0000000e+00 0.0000000e+00 
0.0000000e+00 0.0000000e+00 0.0000000e+00 
0.0000000e+00 0.0000000e+00 0.0000000e+00 
0.0000000e+00 0.0000000e+00 0.0000000e+00 
0.0000000e+00 0.0000000e+00 0.0000000e+00 
CELL_DATA 38
FIELD FieldData 0
