# vtk DataFile Version 4.0
vtk output
ASCII
DATASET UNSTRUCTURED_GRID
POINTS 101 float
0.0000000e+00 0.0000000e+00 0.0000000e+00 
0.0000000e+00 2.5000000e-01 0.0000000e+00 
2.5000000e-01 0.0000000e+00 0.0000000e+00 
2.5000000e-01 2.5000000e-01 0.0000000e+00 
0.0000000e+00 5.0000000e-01 0.0000000e+00 
5.0000000e-01 0.0000000e+00 0.0000000e+00 
3.5416666e-01 5.0558227e-01 0.0000000e+00 
6.0416669e-01 2.5558227e-01 0.0000000e+00 
0.0000000e+00 7.5000000e-01 0.0000000e+00 
7.5000000e-01 0.0000000e+00 0.0000000e+00 
2.5000000e-01 7.5000000e-01 0.0000000e+00 
7.0833331e-01 5.1116455e-01 0.0000000e+00 
8.5416669e-01 2.5558227e-01 0.0000000e+00 
6.0416669e-01 7.5558227e-01 0.0000000e+00 
0.0000000e+00 1.0000000e+00 0.0000000e+00 
1.0000000e+00 0.0000000e+00 0.0000000e+00 
2.5000000e-01 1.0000000e+00 0.0000000e+00 
9.7916669e-01 5.3907591e-01 0.0000000e+00 
5.0000000e-01 1.0000000e+00 0.0000000e+00 
8.5416669e-01 7.5558227e-01 0.0000000e+00 
1.1250000e+00 2.8349364e-01 0.0000000e+00 
7.5000000e-01 1.0000000e+00 0.0000000e+00 
1.2500000e+00 0.0000000e+00 0.0000000e+00 
1.1250000e+00 7.8349364e-01 0.0000000e+00 
1.2500000e+00 5.6698728e-01 0.0000000e+00 
1.3750000e+00 2.8349364e-01 0.0000000e+00 
1.0000000e+00 1.0000000e+00 0.0000000e+00 
1.5000000e+00 0.0000000e+00 0.0000000e+00 
1.3750000e+00 7.8349364e-01 0.0000000e+00 
1.2500000e+00 1.0000000e+00 0.0000000e+00 
1.5000000e+00 5.6698728e-01 0.0000000e+00 
1.6250000e+00 2.8349364e-01 0.0000000e+00 
1.7500000e+00 0.0000000e+00 0.0000000e+00 
1.5000000e+00 1.0000000e+00 0.0000000e+00 
1.6250000e+00 7.8349364e-01 0.0000000e+00 
1.7500000e+00 5.6698728e-01 0.0000000e+00 
1.8750000e+00 2.8349364e-01 0.0000000e+00 
2.0000000e+00 0.0000000e+00 0.0000000e+00 
1.7500000e+00 1.0000000e+00 0.0000000e+00 
1.8750000e+00 7.8349364e-01 0.0000000e+00 
2.0000000e+00 5.6698728e-01 0.0000000e+00 
2.1250000e+00 2.8349364e-01 0.0000000e+00 
2.0000000e+00 1.0000000e+00 0.0000000e+00 
2.2500000e+00 0.0000000e+00 0.0000000e+00 
2.1250000e+00 7.8349364e-01 0.0000000e+00 
2.2500000e+00 5.6698728e-01 0.0000000e+00 
2.3750000e+00 2.8349364e-01 0.0000000e+00 
2.2500000e+00 1.0000000e+00 0.0000000e+00 
2.5000000e+00 0.0000000e+00 0.0000000e+00 
2.3750000e+00 7.8349364e-01 0.0000000e+00 
2.5000000e+00 5.6698728e-01 0.0000000e+00 
2.6250000e+00 2.8349364e-01 0.0000000e+00 
2.5000000e+00 1.0000000e+00 0.0000000e+00 
2.6250000e+00 7.8349364e-01 0.0000000e+00 
2.7500000e+00 0.0000000e+00 0.0000000e+00 
2.7500000e+00 5.6698728e-01 0.0000000e+00 
2.8750000e+00 2.8349364e-01 0.0000000e+00 
2.7500000e+00 1.0000000e+00 0.0000000e+00 
2.8750000e+00 7.8349364e-01 0.0000000e+00 
3.0000000e+00 0.0000000e+00 0.0000000e+00 
3.0000000e+00 5.0000000e-01 0.0000000e+00 
3.1250000e+00 2.1650635e-01 0.0000000e+00 
3.0000000e+00 1.0000000e+00 0.0000000e+00 
3.1250000e+00 7.1650636e-01 0.0000000e+00 
3.2500000e+00 0.0000000e+00 0.0000000e+00 
3.2500000e+00 4.3301269e-01 0.0000000e+00 
3.3750000e+00 2.1650635e-01 0.0000000e+00 
3.2500000e+00 1.0000000e+00 0.0000000e+00 
3.3750000e+00 7.1650636e-01 0.0000000e+00 
3.5000000e+00 0.0000000e+00 0.0000000e+00 
3.5000000e+00 4.3301269e-01 0.0000000e+00 
3.6250000e+00 2.1650635e-01 0.0000000e+00 
3.5000000e+00 1.0000000e+00 0.0000000e+00 
3.6250000e+00 7.1650636e-01 0.0000000e+00 
3.7500000e+00 0.0000000e+00 0.0000000e+00 
3.7500000e+00 4.3301269e-01 0.0000000e+00 
3.8750000e+00 2.1650635e-01 0.0000000e+00 
3.7500000e+00 1.0000000e+00 0.0000000e+00 
3.8750000e+00 7.1650636e-01 0.0000000e+00 
4.0000000e+00 0.0000000e+00 0.0000000e+00 
4.0208335e+00 4.6092409e-01 0.0000000e+00 
4.0000000e+00 1.0000000e+00 0.0000000e+00 
4.1458335e+00 2.4441773e-01 0.0000000e+00 
4.1458335e+00 7.4441773e-01 0.0000000e+00 
4.2500000e+00 0.0000000e+00 0.0000000e+00 
4.2916665e+00 4.8883545e-01 0.0000000e+00 
4.2500000e+00 1.0000000e+00 0.0000000e+00 
4.3958335e+00 2.4441773e-01 0.0000000e+00 
4.3958335e+00 7.4441773e-01 0.0000000e+00 
4.5000000e+00 0.0000000e+00 0.0000000e+00 
4.5000000e+00 1.0000000e+00 0.0000000e+00 
4.6458335e+00 4.9441773e-01 0.0000000e+00 
4.7500000e+00 0.0000000e+00 0.0000000e+00 
4.7500000e+00 2.5000000e-01 0.0000000e+00 
4.7500000e+00 7.5000000e-01 0.0000000e+00 
4.7500000e+00 1.0000000e+00 0.0000000e+00 
5.0000000e+00 0.0000000e+00 0.0000000e+00 
5.0000000e+00 2.5000000e-01 0.0000000e+00 
5.0000000e+00 5.0000000e-01 0.0000000e+00 
5.0000000e+00 7.5000000e-01 0.0000000e+00 
5.0000000e+00 1.0000000e+00 0.0000000e+00 

CELLS 38 266
6 0 5 4 2 3 1
6 79 89 85 84 87 82
6 62 52 55 57 53 58
6 85 89 98 87 93 91
6 79 85 75 82 80 76
6 55 52 45 53 49 50
6 75 85 81 80 83 78
6 79 75 69 76 71 74
6 45 52 42 49 47 44
6 55 45 48 50 46 51
6 69 75 65 71 70 66
6 65 75 72 70 73 68
6 69 65 59 66 61 64
6 59 65 55 61 60 56
6 37 48 45 43 46 41
6 100 90 98 95 94 99
6 26 18 11 21 13 19
6 11 18 4 13 10 6
6 26 11 24 19 17 23
6 24 11 15 17 12 20
6 26 24 33 23 28 29
6 33 24 35 28 30 34
6 35 24 27 30 25 31
6 33 35 42 34 39 38
6 42 35 45 39 40 44
6 45 35 37 40 36 41
6 15 27 24 22 25 20
6 96 98 89 97 93 92
6 81 72 75 77 73 78
6 14 4 18 8 10 16
6 5 15 11 9 12 7
6 48 59 55 54 56 51
6 90 81 85 86 83 88
6 27 37 35 32 36 31
6 72 62 65 67 63 68
6 62 55 65 58 60 63
6 90 85 98 88 91 94
6 5 11 4 7 6 3

CELL_TYPES 38
22
22
22
22
22
22
22
22
22
22
22
22
22
22
22
22
22
22
22
22
22
22
22
22
22
22
22
22
22
22
22
22
22
22
22
22
22
22
POINT_DATA 101
FIELD FieldData 2
DISPLACEMENT 3 101  float
0.0000000e+00 0.0000000e+00 0.0000000e+00 
0.0000000e+00 0.0000000e+00 0.0000000e+00 
0.0000000e+00 0.0000000e+00 0.0000000e+00 
-8.4741594e-05 -3.4960025e-04 0.0000000e+00 
0.0000000e+00 0.0000000e+00 0.0000000e+00 
0.0000000e+00 0.0000000e+00 0.0000000e+00 
-5.1312247e-05 -1.0207461e-03 0.0000000e+00 
4.9002472e-05 -4.9086951e-04 0.0000000e+00 
0.0000000e+00 0.0000000e+00 0.0000000e+00 
0.0000000e+00 0.0000000e+00 0.0000000e+00 
-1.5977134e-04 -1.4772897e-03 0.0000000e+00 
1.6620891e-04 -1.0319138e-03 0.0000000e+00 
1.1880600e-04 -4.3258836e-04 0.0000000e+00 
3.1562708e-04 -2.1896099e-03 0.0000000e+00 
0.0000000e+00 0.0000000e+00 0.0000000e+00 
0.0000000e+00 0.0000000e+00 0.0000000e+00 
4.3130427e-04 -2.0537255e-03 0.0000000e+00 
1.6016739e-04 -7.5818505e-04 0.0000000e+00 
8.2132421e-05 -4.2241472e-03 0.0000000e+00 
1.8372363e-04 -1.1178415e-03 0.0000000e+00 
1.2236332e-04 -3.7641282e-04 0.0000000e+00 
-2.7819045e-04 -1.6469831e-03 0.0000000e+00 
0.0000000e+00 0.0000000e+00 0.0000000e+00 
-1.4353318e-05 -8.3980744e-04 0.0000000e+00 
1.1085006e-04 -6.7874277e-04 0.0000000e+00 
1.2066975e-04 -3.1732494e-04 0.0000000e+00 
-1.9674667e-04 -8.5693761e-04 0.0000000e+00 
0.0000000e+00 0.0000000e+00 0.0000000e+00 
-4.6072961e-05 -1.0269971e-03 0.0000000e+00 
-5.3577631e-05 -1.1376591e-03 0.0000000e+00 
1.2760614e-04 -6.1058789e-04 0.0000000e+00 
1.3712823e-04 -2.4067730e-04 0.0000000e+00 
0.0000000e+00 0.0000000e+00 0.0000000e+00 
-1.5624762e-04 -1.6419335e-03 0.0000000e+00 
9.7438184e-05 -8.0496859e-04 0.0000000e+00 
1.4245532e-04 -3.7200563e-04 0.0000000e+00 
1.2646253e-04 -1.4387530e-04 0.0000000e+00 
0.0000000e+00 0.0000000e+00 0.0000000e+00 
-2.4507186e-04 -5.5601366e-04 0.0000000e+00 
4.0373423e-05 -3.1444308e-04 0.0000000e+00 
1.1003171e-04 -1.7081825e-04 0.0000000e+00 
9.5842443e-05 -6.7954250e-05 0.0000000e+00 
-1.6919976e-04 -1.9974988e-04 0.0000000e+00 
0.0000000e+00 0.0000000e+00 0.0000000e+00 
1.1721452e-05 -1.0874522e-04 0.0000000e+00 
7.2567236e-05 -5.9030623e-05 0.0000000e+00 
6.3570449e-05 -2.5226569e-05 0.0000000e+00 
-8.7101973e-05 -6.2545114e-05 0.0000000e+00 
0.0000000e+00 0.0000000e+00 0.0000000e+00 
7.0415153e-06 -2.3878812e-05 0.0000000e+00 
4.3065018e-05 -1.0161740e-05 0.0000000e+00 
3.8578815e-05 -5.7635966e-06 0.0000000e+00 
-2.9412586e-05 -7.4359918e-06 0.0000000e+00 
8.0876807e-06 4.4176077e-06 0.0000000e+00 
0.0000000e+00 0.0000000e+00 0.0000000e+00 
2.4577212e-05 6.0624852e-06 0.0000000e+00 
2.2396369e-05 1.0984011e-06 0.0000000e+00 
-6.2800686e-06 8.0391064e-06 0.0000000e+00 
9.5573942e-06 1.0936603e-05 0.0000000e+00 
0.0000000e+00 0.0000000e+00 0.0000000e+00 
1.7123901e-05 6.5297718e-06 0.0000000e+00 
1.0861028e-05 1.4242108e-06 0.0000000e+00 
6.4141841e-06 1.0084675e-05 0.0000000e+00 
1.0347071e-05 8.7794551e-06 0.0000000e+00 
0.0000000e+00 0.0000000e+00 0.0000000e+00 
1.0939779e-05 4.6926757e-06 0.0000000e+00 
5.9195850e-06 1.3209424e-06 0.0000000e+00 
9.0890344e-06 8.0021973e-06 0.0000000e+00 
8.6855807e-06 5.9825861e-06 0.0000000e+00 
0.0000000e+00 0.0000000e+00 0.0000000e+00 
6.9743619e-06 2.7681324e-06 0.0000000e+00 
3.4187249e-06 7.2657326e-07 0.0000000e+00 
9.5445093e-06 5.2433666e-06 0.0000000e+00 
6.9881366e-06 3.3810893e-06 0.0000000e+00 
0.0000000e+00 0.0000000e+00 0.0000000e+00 
4.4905742e-06 1.4709533e-06 0.0000000e+00 
2.0842301e-06 3.1775653e-07 0.0000000e+00 
7.9037818e-06 3.0400167e-06 0.0000000e+00 
5.4089578e-06 1.6503107e-06 0.0000000e+00 
0.0000000e+00 0.0000000e+00 0.0000000e+00 
3.2083829e-06 5.0765772e-07 0.0000000e+00 
6.0895354e-06 1.5871938e-06 0.0000000e+00 
1.4800793e-06 4.0556980e-09 0.0000000e+00 
3.9951169e-06 6.2216600e-07 0.0000000e+00 
0.0000000e+00 0.0000000e+00 0.0000000e+00 
2.2272484e-06 3.3258054e-08 0.0000000e+00 
4.2574957e-06 7.7051720e-07 0.0000000e+00 
9.6237056e-07 -1.4619974e-07 0.0000000e+00 
2.6894263e-06 1.4930282e-07 0.0000000e+00 
0.0000000e+00 0.0000000e+00 0.0000000e+00 
2.6382495e-06 3.9492670e-07 0.0000000e+00 
1.0613697e-06 -2.0019664e-07 0.0000000e+00 
0.0000000e+00 0.0000000e+00 0.0000000e+00 
3.9636097e-07 -1.7395173e-07 0.0000000e+00 
1.0411844e-06 -4.1615092e-08 0.0000000e+00 
1.2380151e-06 2.1869472e-07 0.0000000e+00 
0.0000000e+00 0.0000000e+00 0.0000000e+00 
0.0000000e+00 0.0000000e+00 0.0000000e+00 
0.0000000e+00 0.0000000e+00 0.0000000e+00 
0.0000000e+00 0.0000000e+00 0.0000000e+00 
0.0000000e+00 0.0000000e+00 0.0000000e+00 
TOTAL_DISPLACEMENT 3 101  float
0.0000000e+00 0.0000000e+00 0.0000000e+00 
0.0000000e+00 0.0000000e+00 0.0000000e+00 
0.0000000e+00 0.0000000e+00 0.0000000e+00 
-8.4741594e-05 -3.4960025e-04 0.0000000e+00 
0.0000000e+00 0.0000000e+00 0.0000000e+00 
0.0000000e+00 0.0000000e+00 0.0000000e+00 
-5.1312247e-05 -1.0207461e-03 0.0000000e+00 
4.9002472e-05 -4.9086951e-04 0.0000000e+00 
0.0000000e+00 0.0000000e+00 0.0000000e+00 
0.0000000e+00 0.0000000e+00 0.0000000e+00 
-1.5977134e-04 -1.4772897e-03 0.0000000e+00 
1.6620891e-04 -1.0319138e-03 0.0000000e+00 
1.1880600e-04 -4.3258836e-04 0.0000000e+00 
3.1562708e-04 -2.1896099e-03 0.0000000e+00 
0.0000000e+00 0.0000000e+00 0.0000000e+00 
0.0000000e+00 0.0000000e+00 0.0000000e+00 
4.3130427e-04 -2.0537255e-03 0.0000000e+00 
1.6016739e-04 -7.5818505e-04 0.0000000e+00 
8.2132421e-05 -4.2241472e-03 0.0000000e+00 
1.8372363e-04 -1.1178415e-03 0.0000000e+00 
1.2236332e-04 -3.7641282e-04 0.0000000e+00 
-2.7819045e-04 -1.6469831e-03 0.0000000e+00 
0.0000000e+00 0.0000000e+00 0.0000000e+00 
-1.4353318e-05 -8.3980744e-04 0.0000000e+00 
1.1085006e-04 -6.7874277e-04 0.0000000e+00 
1.2066975e-04 -3.1732494e-04 0.0000000e+00 
-1.9674667e-04 -8.5693761e-04 0.0000000e+00 
0.0000000e+00 0.0000000e+00 0.0000000e+00 
-4.6072961e-05 -1.0269971e-03 0.0000000e+00 
-5.3577631e-05 -1.1376591e-03 0.0000000e+00 
1.2760614e-04 -6.1058789e-04 0.0000000e+00 
1.3712823e-04 -2.4067730e-04 0.0000000e+00 
0.0000000e+00 0.0000000e+00 0.0000000e+00 
-1.5624762e-04 -1.6419335e-03 0.0000000e+00 
9.7438184e-05 -8.0496859e-04 0.0000000e+00 
1.4245532e-04 -3.7200563e-04 0.0000000e+00 
1.2646253e-04 -1.4387530e-04 0.0000000e+00 
0.0000000e+00 0.0000000e+00 0.0000000e+00 
-2.4507186e-04 -5.5601366e-04 0.0000000e+00 
4.0373423e-05 -3.1444308e-04 0.0000000e+00 
1.1003171e-04 -1.7081825e-04 0.0000000e+00 
9.5842443e-05 -6.7954250e-05 0.0000000e+00 
-1.6919976e-04 -1.9974988e-04 0.0000000e+00 
0.0000000e+00 0.0000000e+00 0.0000000e+00 
1.1721452e-05 -1.0874522e-04 0.0000000e+00 
7.2567236e-05 -5.9030623e-05 0.0000000e+00 
6.3570449e-05 -2.5226569e-05 0.0000000e+00 
-8.7101973e-05 -6.2545114e-05 0.0000000e+00 
0.0000000e+00 0.0000000e+00 0.0000000e+00 
7.0415153e-06 -2.3878812e-05 0.0000000e+00 
4.3065018e-05 -1.0161740e-05 0.0000000e+00 
3.8578815e-05 -5.7635966e-06 0.0000000e+00 
-2.9412586e-05 -7.4359918e-06 0.0000000e+00 
8.0876807e-06 4.4176077e-06 0.0000000e+00 
0.0000000e+00 0.0000000e+00 0.0000000e+00 
2.4577212e-05 6.0624852e-06 0.0000000e+00 
2.2396369e-05 1.0984011e-06 0.0000000e+00 
-6.2800686e-06 8.0391064e-06 0.0000000e+00 
9.5573942e-06 1.0936603e-05 0.0000000e+00 
0.0000000e+00 0.0000000e+00 0.0000000e+00 
1.7123901e-05 6.5297718e-06 0.0000000e+00 
1.0861028e-05 1.4242108e-06 0.0000000e+00 
6.4141841e-06 1.0084675e-05 0.0000000e+00 
1.0347071e-05 8.7794551e-06 0.0000000e+00 
0.0000000e+00 0.0000000e+00 0.0000000e+00 
1.0939779e-05 4.6926757e-06 0.0000000e+00 
5.9195850e-06 1.3209424e-06 0.0000000e+00 
9.0890344e-06 8.0021973e-06 0.0000000e+00 
8.6855807e-06 5.9825861e-06 0.0000000e+00 
0.0000000e+00 0.0000000e+00 0.0000000e+00 
6.9743619e-06 2.7681324e-06 0.0000000e+00 
3.4187249e-06 7.2657326e-07 0.0000000e+00 
9.5445093e-06 5.2433666e-06 0.0000000e+00 
6.9881366e-06 3.3810893e-06 0.0000000e+00 
0.0000000e+00 0.0000000e+00 0.0000000e+00 
4.4905742e-06 1.4709533e-06 0.0000000e+00 
2.0842301e-06 3.1775653e-07 0.0000000e+00 
7.9037818e-06 3.0400167e-06 0.0000000e+00 
5.4089578e-06 1.6503107e-06 0.0000000e+00 
0.0000000e+00 0.0000000e+00 0.0000000e+00 
3.2083829e-06 5.0765772e-07 0.0000000e+00 
6.0895354e-06 1.5871938e-06 0.0000000e+00 
1.4800793e-06 4.0556980e-09 0.0000000e+00 
3.9951169e-06 6.2216600e-07 0.0000000e+00 
0.0000000e+00 0.0000000e+00 0.0000000e+00 
2.2272484e-06 3.3258054e-08 0.0000000e+00 
4.2574957e-06 7.7051720e-07 0.0000000e+00 
9.6237056e-07 -1.4619974e-07 0.0000000e+00 
2.6894263e-06 1.4930282e-07 0.0000000e+00 
0.0000000e+00 0.0000000e+00 0.0000000e+00 
2.6382495e-06 3.9492670e-07 0.0000000e+00 
1.0613697e-06 -2.0019664e-07 0.0000000e+00 
0.0000000e+00 0.0000000e+00 0.0000000e+00 
3.9636097e-07 -1.7395173e-07 0.0000000e+00 
1.0411844e-06 -4.1615092e-08 0.0000000e+00 
1.2380151e-06 2.1869472e-07 0.0000000e+00 
0.0000000e+00 0.0000000e+00 0.0000000e+00 
0.0000000e+00 0.0000000e+00 0.0000000e+00 
0.0000000e+00 0.0000000e+00 0.0000000e+00 
0.0000000e+00 0.0000000e+00 0.0000000e+00 
0.0000000e+00 0.0000000e+00 0.0000000e+00 
CELL_DATA 38
FIELD FieldData 0
