# vtk DataFile Version 4.0
vtk output
ASCII
DATASET UNSTRUCTURED_GRID
POINTS 101 float
0.0000000e+00 0.0000000e+00 0.0000000e+00 
0.0000000e+00 2.5000000e-01 0.0000000e+00 
2.5000000e-01 0.0000000e+00 0.0000000e+00 
2.5000000e-01 2.5000000e-01 0.0000000e+00 
0.0000000e+00 5.0000000e-01 0.0000000e+00 
5.0000000e-01 0.0000000e+00 0.0000000e+00 
3.5416666e-01 5.0558227e-01 0.0000000e+00 
6.0416669e-01 2.5558227e-01 0.0000000e+00 
0.0000000e+00 7.5000000e-01 0.0000000e+00 
7.5000000e-01 0.0000000e+00 0.0000000e+00 
2.5000000e-01 7.5000000e-01 0.0000000e+00 
7.0833331e-01 5.1116455e-01 0.0000000e+00 
8.5416669e-01 2.5558227e-01 0.0000000e+00 
6.0416669e-01 7.5558227e-01 0.0000000e+00 
0.0000000e+00 1.0000000e+00 0.0000000e+00 
1.0000000e+00 0.0000000e+00 0.0000000e+00 
2.5000000e-01 1.0000000e+00 0.0000000e+00 
9.7916669e-01 5.3907591e-01 0.0000000e+00 
5.0000000e-01 1.0000000e+00 0.0000000e+00 
8.5416669e-01 7.5558227e-01 0.0000000e+00 
1.1250000e+00 2.8349364e-01 0.0000000e+00 
7.5000000e-01 1.0000000e+00 0.0000000e+00 
1.2500000e+00 0.0000000e+00 0.0000000e+00 
1.1250000e+00 7.8349364e-01 0.0000000e+00 
1.2500000e+00 5.6698728e-01 0.0000000e+00 
1.3750000e+00 2.8349364e-01 0.0000000e+00 
1.0000000e+00 1.0000000e+00 0.0000000e+00 
1.5000000e+00 0.0000000e+00 0.0000000e+00 
1.3750000e+00 7.8349364e-01 0.0000000e+00 
1.2500000e+00 1.0000000e+00 0.0000000e+00 
1.5000000e+00 5.6698728e-01 0.0000000e+00 
1.6250000e+00 2.8349364e-01 0.0000000e+00 
1.7500000e+00 0.0000000e+00 0.0000000e+00 
1.5000000e+00 1.0000000e+00 0.0000000e+00 
1.6250000e+00 7.8349364e-01 0.0000000e+00 
1.7500000e+00 5.6698728e-01 0.0000000e+00 
1.8750000e+00 2.8349364e-01 0.0000000e+00 
2.0000000e+00 0.0000000e+00 0.0000000e+00 
1.7500000e+00 1.0000000e+00 0.0000000e+00 
1.8750000e+00 7.8349364e-01 0.0000000e+00 
2.0000000e+00 5.6698728e-01 0.0000000e+00 
2.1250000e+00 2.8349364e-01 0.0000000e+00 
2.0000000e+00 1.0000000e+00 0.0000000e+00 
2.2500000e+00 0.0000000e+00 0.0000000e+00 
2.1250000e+00 7.8349364e-01 0.0000000e+00 
2.2500000e+00 5.6698728e-01 0.0000000e+00 
2.3750000e+00 2.8349364e-01 0.0000000e+00 
2.2500000e+00 1.0000000e+00 0.0000000e+00 
2.5000000e+00 0.0000000e+00 0.0000000e+00 
2.3750000e+00 7.8349364e-01 0.0000000e+00 
2.5000000e+00 5.6698728e-01 0.0000000e+00 
2.6250000e+00 2.8349364e-01 0.0000000e+00 
2.5000000e+00 1.0000000e+00 0.0000000e+00 
2.6250000e+00 7.8349364e-01 0.0000000e+00 
2.7500000e+00 0.0000000e+00 0.0000000e+00 
2.7500000e+00 5.6698728e-01 0.0000000e+00 
2.8750000e+00 2.8349364e-01 0.0000000e+00 
2.7500000e+00 1.0000000e+00 0.0000000e+00 
2.8750000e+00 7.8349364e-01 0.0000000e+00 
3.0000000e+00 0.0000000e+00 0.0000000e+00 
3.0000000e+00 5.0000000e-01 0.0000000e+00 
3.1250000e+00 2.1650635e-01 0.0000000e+00 
3.0000000e+00 1.0000000e+00 0.0000000e+00 
3.1250000e+00 7.1650636e-01 0.0000000e+00 
3.2500000e+00 0.0000000e+00 0.0000000e+00 
3.2500000e+00 4.3301269e-01 0.0000000e+00 
3.3750000e+00 2.1650635e-01 0.0000000e+00 
3.2500000e+00 1.0000000e+00 0.0000000e+00 
3.3750000e+00 7.1650636e-01 0.0000000e+00 
3.5000000e+00 0.0000000e+00 0.0000000e+00 
3.5000000e+00 4.3301269e-01 0.0000000e+00 
3.6250000e+00 2.1650635e-01 0.0000000e+00 
3.5000000e+00 1.0000000e+00 0.0000000e+00 
3.6250000e+00 7.1650636e-01 0.0000000e+00 
3.7500000e+00 0.0000000e+00 0.0000000e+00 
3.7500000e+00 4.3301269e-01 0.0000000e+00 
3.8750000e+00 2.1650635e-01 0.0000000e+00 
3.7500000e+00 1.0000000e+00 0.0000000e+00 
3.8750000e+00 7.1650636e-01 0.0000000e+00 
4.0000000e+00 0.0000000e+00 0.0000000e+00 
4.0208335e+00 4.6092409e-01 0.0000000e+00 
4.0000000e+00 1.0000000e+00 0.0000000e+00 
4.1458335e+00 2.4441773e-01 0.0000000e+00 
4.1458335e+00 7.4441773e-01 0.0000000e+00 
4.2500000e+00 0.0000000e+00 0.0000000e+00 
4.2916665e+00 4.8883545e-01 0.0000000e+00 
4.2500000e+00 1.0000000e+00 0.0000000e+00 
4.3958335e+00 2.4441773e-01 0.0000000e+00 
4.3958335e+00 7.4441773e-01 0.0000000e+00 
4.5000000e+00 0.0000000e+00 0.0000000e+00 
4.5000000e+00 1.0000000e+00 0.0000000e+00 
4.6458335e+00 4.9441773e-01 0.0000000e+00 
4.7500000e+00 0.0000000e+00 0.0000000e+00 
4.7500000e+00 2.5000000e-01 0.0000000e+00 
4.7500000e+00 7.5000000e-01 0.0000000e+00 
4.7500000e+00 1.0000000e+00 0.0000000e+00 
5.0000000e+00 0.0000000e+00 0.0000000e+00 
5.0000000e+00 2.5000000e-01 0.0000000e+00 
5.0000000e+00 5.0000000e-01 0.0000000e+00 
5.0000000e+00 7.5000000e-01 0.0000000e+00 
5.0000000e+00 1.0000000e+00 0.0000000e+00 

CELLS 38 266
6 0 5 4 2 3 1
6 79 89 85 84 87 82
6 62 52 55 57 53 58
6 85 89 98 87 93 91
6 79 85 75 82 80 76
6 55 52 45 53 49 50
6 75 85 81 80 83 78
6 79 75 69 76 71 74
6 45 52 42 49 47 44
6 55 45 48 50 46 51
6 69 75 65 71 70 66
6 65 75 72 70 73 68
6 69 65 59 66 61 64
6 59 65 55 61 60 56
6 37 48 45 43 46 41
6 100 90 98 95 94 99
6 26 18 11 21 13 19
6 11 18 4 13 10 6
6 26 11 24 19 17 23
6 24 11 15 17 12 20
6 26 24 33 23 28 29
6 33 24 35 28 30 34
6 35 24 27 30 25 31
6 33 35 42 34 39 38
6 42 35 45 39 40 44
6 45 35 37 40 36 41
6 15 27 24 22 25 20
6 96 98 89 97 93 92
6 81 72 75 77 73 78
6 14 4 18 8 10 16
6 5 15 11 9 12 7
6 48 59 55 54 56 51
6 90 81 85 86 83 88
6 27 37 35 32 36 31
6 72 62 65 67 63 68
6 62 55 65 58 60 63
6 90 85 98 88 91 94
6 5 11 4 7 6 3

CELL_TYPES 38
22
22
22
22
22
22
22
22
22
22
22
22
22
22
22
22
22
22
22
22
22
22
22
22
22
22
22
22
22
22
22
22
22
22
22
22
22
22
POINT_DATA 101
FIELD FieldData 2
DISPLACEMENT 3 101  float
0.0000000e+00 0.0000000e+00 0.0000000e+00 
0.0000000e+00 0.0000000e+00 0.0000000e+00 
0.0000000e+00 0.0000000e+00 0.0000000e+00 
-2.9756038e-07 -3.5768579e-08 0.0000000e+00 
0.0000000e+00 0.0000000e+00 0.0000000e+00 
0.0000000e+00 0.0000000e+00 0.0000000e+00 
-9.6769634e-07 1.9903867e-07 0.0000000e+00 
-8.9312834e-07 4.5735342e-07 0.0000000e+00 
0.0000000e+00 0.0000000e+00 0.0000000e+00 
0.0000000e+00 0.0000000e+00 0.0000000e+00 
-1.1420996e-06 1.9387721e-07 0.0000000e+00 
-2.1693818e-06 1.5765891e-06 0.0000000e+00 
-1.7243616e-06 1.1996924e-06 0.0000000e+00 
-2.8616021e-06 1.4240898e-06 0.0000000e+00 
0.0000000e+00 0.0000000e+00 0.0000000e+00 
0.0000000e+00 0.0000000e+00 0.0000000e+00 
-1.6830670e-06 5.1280517e-07 0.0000000e+00 
-3.4919976e-06 3.9137603e-06 0.0000000e+00 
-3.4808336e-06 1.3076165e-06 0.0000000e+00 
-4.0029527e-06 3.3176116e-06 0.0000000e+00 
-3.8666572e-06 2.9779892e-06 0.0000000e+00 
-5.3828712e-06 2.8284519e-06 0.0000000e+00 
0.0000000e+00 0.0000000e+00 0.0000000e+00 
-5.1496218e-06 7.3291426e-06 0.0000000e+00 
-5.4123111e-06 8.5629754e-06 0.0000000e+00 
-7.9423526e-06 4.9117148e-06 0.0000000e+00 
-7.1911504e-06 5.5079422e-06 0.0000000e+00 
0.0000000e+00 0.0000000e+00 0.0000000e+00 
-5.0903864e-06 1.2740545e-05 0.0000000e+00 
-7.6867154e-06 1.0075477e-05 0.0000000e+00 
-8.7994549e-06 1.3487892e-05 0.0000000e+00 
-1.6243435e-05 6.8380723e-06 0.0000000e+00 
0.0000000e+00 0.0000000e+00 0.0000000e+00 
-5.7987695e-06 1.5857866e-05 0.0000000e+00 
-3.2888508e-06 2.0115836e-05 0.0000000e+00 
-1.5071817e-05 1.9752335e-05 0.0000000e+00 
-3.2871183e-05 5.6584290e-06 0.0000000e+00 
0.0000000e+00 0.0000000e+00 0.0000000e+00 
5.7803645e-06 2.1878581e-05 0.0000000e+00 
1.6801316e-06 2.4679375e-05 0.0000000e+00 
-2.9263179e-05 1.7104558e-05 0.0000000e+00 
-6.2418716e-05 -4.4899070e-06 0.0000000e+00 
2.9025859e-05 2.0428979e-05 0.0000000e+00 
0.0000000e+00 0.0000000e+00 0.0000000e+00 
1.0797652e-05 1.7878960e-05 0.0000000e+00 
-5.4886154e-05 -4.9299842e-06 0.0000000e+00 
-1.1145016e-04 -4.0421430e-05 0.0000000e+00 
9.0324756e-05 -5.6457170e-06 0.0000000e+00 
0.0000000e+00 0.0000000e+00 0.0000000e+00 
2.3863970e-05 -2.8758845e-05 0.0000000e+00 
-1.1411516e-04 -9.0299742e-05 0.0000000e+00 
-1.7864011e-04 -1.2905993e-04 0.0000000e+00 
1.8725384e-04 -9.2633643e-05 0.0000000e+00 
3.3848639e-05 -1.7218615e-04 0.0000000e+00 
0.0000000e+00 0.0000000e+00 0.0000000e+00 
-2.1155000e-04 -3.1909521e-04 0.0000000e+00 
-2.3898552e-04 -2.9906677e-04 0.0000000e+00 
3.8595835e-04 -3.3408092e-04 0.0000000e+00 
1.7007258e-05 -5.2241626e-04 0.0000000e+00 
0.0000000e+00 0.0000000e+00 0.0000000e+00 
-2.9969480e-04 -7.0798193e-04 0.0000000e+00 
-1.8155939e-04 -3.9112315e-04 0.0000000e+00 
6.4792053e-04 -8.1902958e-04 0.0000000e+00 
-2.4764071e-04 -1.3678124e-03 0.0000000e+00 
0.0000000e+00 0.0000000e+00 0.0000000e+00 
-1.8313718e-04 -1.0129790e-03 0.0000000e+00 
-7.8497760e-05 -5.2643253e-04 0.0000000e+00 
4.7426627e-04 -2.7582028e-03 0.0000000e+00 
-1.8473779e-04 -2.4025452e-03 0.0000000e+00 
0.0000000e+00 0.0000000e+00 0.0000000e+00 
1.4327486e-05 -1.2088431e-03 0.0000000e+00 
6.3856474e-05 -5.1436655e-04 0.0000000e+00 
-1.0931246e-04 -4.6735359e-03 0.0000000e+00 
2.4220778e-04 -2.1519593e-03 0.0000000e+00 
0.0000000e+00 0.0000000e+00 0.0000000e+00 
1.3448406e-04 -9.2061056e-04 0.0000000e+00 
1.1780689e-04 -3.9108953e-04 0.0000000e+00 
-4.4744779e-04 -1.8345173e-03 0.0000000e+00 
1.2746878e-04 -1.1381133e-03 0.0000000e+00 
0.0000000e+00 0.0000000e+00 0.0000000e+00 
1.4443287e-04 -6.6751055e-04 0.0000000e+00 
-3.5642719e-04 -9.0223784e-04 0.0000000e+00 
1.1890269e-04 -3.2279151e-04 0.0000000e+00 
-6.1356441e-05 -8.1961736e-04 0.0000000e+00 
0.0000000e+00 0.0000000e+00 0.0000000e+00 
1.1397254e-04 -5.5788003e-04 0.0000000e+00 
-1.9718864e-04 -1.1127939e-03 0.0000000e+00 
1.0990279e-04 -2.4262570e-04 0.0000000e+00 
-7.2366012e-05 -9.0670027e-04 0.0000000e+00 
0.0000000e+00 0.0000000e+00 0.0000000e+00 
-2.2929959e-04 -1.4704572e-03 0.0000000e+00 
1.1163292e-04 -3.2521103e-04 0.0000000e+00 
0.0000000e+00 0.0000000e+00 0.0000000e+00 
7.5556054e-05 -1.2211302e-04 0.0000000e+00 
6.2056795e-05 -3.7767578e-04 0.0000000e+00 
-2.5652995e-04 -4.2362951e-04 0.0000000e+00 
0.0000000e+00 0.0000000e+00 0.0000000e+00 
0.0000000e+00 0.0000000e+00 0.0000000e+00 
0.0000000e+00 0.0000000e+00 0.0000000e+00 
0.0000000e+00 0.0000000e+00 0.0000000e+00 
0.0000000e+00 0.0000000e+00 0.0000000e+00 
TOTAL_DISPLACEMENT 3 101  float
0.0000000e+00 0.0000000e+00 0.0000000e+00 
0.0000000e+00 0.0000000e+00 0.0000000e+00 
0.0000000e+00 0.0000000e+00 0.0000000e+00 
-2.9756038e-07 -3.5768579e-08 0.0000000e+00 
0.0000000e+00 0.0000000e+00 0.0000000e+00 
0.0000000e+00 0.0000000e+00 0.0000000e+00 
-9.6769634e-07 1.9903867e-07 0.0000000e+00 
-8.9312834e-07 4.5735342e-07 0.0000000e+00 
0.0000000e+00 0.0000000e+00 0.0000000e+00 
0.0000000e+00 0.0000000e+00 0.0000000e+00 
-1.1420996e-06 1.9387721e-07 0.0000000e+00 
-2.1693818e-06 1.5765891e-06 0.0000000e+00 
-1.7243616e-06 1.1996924e-06 0.0000000e+00 
-2.8616021e-06 1.4240898e-06 0.0000000e+00 
0.0000000e+00 0.0000000e+00 0.0000000e+00 
0.0000000e+00 0.0000000e+00 0.0000000e+00 
-1.6830670e-06 5.1280517e-07 0.0000000e+00 
-3.4919976e-06 3.9137603e-06 0.0000000e+00 
-3.4808336e-06 1.3076165e-06 0.0000000e+00 
-4.0029527e-06 3.3176116e-06 0.0000000e+00 
-3.8666572e-06 2.9779892e-06 0.0000000e+00 
-5.3828712e-06 2.8284519e-06 0.0000000e+00 
0.0000000e+00 0.0000000e+00 0.0000000e+00 
-5.1496218e-06 7.3291426e-06 0.0000000e+00 
-5.4123111e-06 8.5629754e-06 0.0000000e+00 
-7.9423526e-06 4.9117148e-06 0.0000000e+00 
-7.1911504e-06 5.5079422e-06 0.0000000e+00 
0.0000000e+00 0.0000000e+00 0.0000000e+00 
-5.0903864e-06 1.2740545e-05 0.0000000e+00 
-7.6867154e-06 1.0075477e-05 0.0000000e+00 
-8.7994549e-06 1.3487892e-05 0.0000000e+00 
-1.6243435e-05 6.8380723e-06 0.0000000e+00 
0.0000000e+00 0.0000000e+00 0.0000000e+00 
-5.7987695e-06 1.5857866e-05 0.0000000e+00 
-3.2888508e-06 2.0115836e-05 0.0000000e+00 
-1.5071817e-05 1.9752335e-05 0.0000000e+00 
-3.2871183e-05 5.6584290e-06 0.0000000e+00 
0.0000000e+00 0.0000000e+00 0.0000000e+00 
5.7803645e-06 2.1878581e-05 0.0000000e+00 
1.6801316e-06 2.4679375e-05 0.0000000e+00 
-2.9263179e-05 1.7104558e-05 0.0000000e+00 
-6.2418716e-05 -4.4899070e-06 0.0000000e+00 
2.9025859e-05 2.0428979e-05 0.0000000e+00 
0.0000000e+00 0.0000000e+00 0.0000000e+00 
1.0797652e-05 1.7878960e-05 0.0000000e+00 
-5.4886154e-05 -4.9299842e-06 0.0000000e+00 
-1.1145016e-04 -4.0421430e-05 0.0000000e+00 
9.0324756e-05 -5.6457170e-06 0.0000000e+00 
0.0000000e+00 0.0000000e+00 0.0000000e+00 
2.3863970e-05 -2.8758845e-05 0.0000000e+00 
-1.1411516e-04 -9.0299742e-05 0.0000000e+00 
-1.7864011e-04 -1.2905993e-04 0.0000000e+00 
1.8725384e-04 -9.2633643e-05 0.0000000e+00 
3.3848639e-05 -1.7218615e-04 0.0000000e+00 
0.0000000e+00 0.0000000e+00 0.0000000e+00 
-2.1155000e-04 -3.1909521e-04 0.0000000e+00 
-2.3898552e-04 -2.9906677e-04 0.0000000e+00 
3.8595835e-04 -3.3408092e-04 0.0000000e+00 
1.7007258e-05 -5.2241626e-04 0.0000000e+00 
0.0000000e+00 0.0000000e+00 0.0000000e+00 
-2.9969480e-04 -7.0798193e-04 0.0000000e+00 
-1.8155939e-04 -3.9112315e-04 0.0000000e+00 
6.4792053e-04 -8.1902958e-04 0.0000000e+00 
-2.4764071e-04 -1.3678124e-03 0.0000000e+00 
0.0000000e+00 0.0000000e+00 0.0000000e+00 
-1.8313718e-04 -1.0129790e-03 0.0000000e+00 
-7.8497760e-05 -5.2643253e-04 0.0000000e+00 
4.7426627e-04 -2.7582028e-03 0.0000000e+00 
-1.8473779e-04 -2.4025452e-03 0.0000000e+00 
0.0000000e+00 0.0000000e+00 0.0000000e+00 
1.4327486e-05 -1.2088431e-03 0.0000000e+00 
6.3856474e-05 -5.1436655e-04 0.0000000e+00 
-1.0931246e-04 -4.6735359e-03 0.0000000e+00 
2.4220778e-04 -2.1519593e-03 0.0000000e+00 
0.0000000e+00 0.0000000e+00 0.0000000e+00 
1.3448406e-04 -9.2061056e-04 0.0000000e+00 
1.1780689e-04 -3.9108953e-04 0.0000000e+00 
-4.4744779e-04 -1.8345173e-03 0.0000000e+00 
1.2746878e-04 -1.1381133e-03 0.0000000e+00 
0.0000000e+00 0.0000000e+00 0.0000000e+00 
1.4443287e-04 -6.6751055e-04 0.0000000e+00 
-3.5642719e-04 -9.0223784e-04 0.0000000e+00 
1.1890269e-04 -3.2279151e-04 0.0000000e+00 
-6.1356441e-05 -8.1961736e-04 0.0000000e+00 
0.0000000e+00 0.0000000e+00 0.0000000e+00 
1.1397254e-04 -5.5788003e-04 0.0000000e+00 
-1.9718864e-04 -1.1127939e-03 0.0000000e+00 
1.0990279e-04 -2.4262570e-04 0.0000000e+00 
-7.2366012e-05 -9.0670027e-04 0.0000000e+00 
0.0000000e+00 0.0000000e+00 0.0000000e+00 
-2.2929959e-04 -1.4704572e-03 0.0000000e+00 
1.1163292e-04 -3.2521103e-04 0.0000000e+00 
0.0000000e+00 0.0000000e+00 0.0000000e+00 
7.5556054e-05 -1.2211302e-04 0.0000000e+00 
6.2056795e-05 -3.7767578e-04 0.0000000e+00 
-2.5652995e-04 -4.2362951e-04 0.0000000e+00 
0.0000000e+00 0.0000000e+00 0.0000000e+00 
0.0000000e+00 0.0000000e+00 0.0000000e+00 
0.0000000e+00 0.0000000e+00 0.0000000e+00 
0.0000000e+00 0.0000000e+00 0.0000000e+00 
0.0000000e+00 0.0000000e+00 0.0000000e+00 
CELL_DATA 38
FIELD FieldData 0
