# vtk DataFile Version 4.0
vtk output
ASCII
DATASET UNSTRUCTURED_GRID
POINTS 101 float
0.0000000e+00 0.0000000e+00 0.0000000e+00 
0.0000000e+00 2.5000000e-01 0.0000000e+00 
2.5000000e-01 0.0000000e+00 0.0000000e+00 
2.5000000e-01 2.5000000e-01 0.0000000e+00 
0.0000000e+00 5.0000000e-01 0.0000000e+00 
5.0000000e-01 0.0000000e+00 0.0000000e+00 
3.5416666e-01 5.0558227e-01 0.0000000e+00 
6.0416669e-01 2.5558227e-01 0.0000000e+00 
0.0000000e+00 7.5000000e-01 0.0000000e+00 
7.5000000e-01 0.0000000e+00 0.0000000e+00 
2.5000000e-01 7.5000000e-01 0.0000000e+00 
7.0833331e-01 5.1116455e-01 0.0000000e+00 
8.5416669e-01 2.5558227e-01 0.0000000e+00 
6.0416669e-01 7.5558227e-01 0.0000000e+00 
0.0000000e+00 1.0000000e+00 0.0000000e+00 
1.0000000e+00 0.0000000e+00 0.0000000e+00 
2.5000000e-01 1.0000000e+00 0.0000000e+00 
9.7916669e-01 5.3907591e-01 0.0000000e+00 
5.0000000e-01 1.0000000e+00 0.0000000e+00 
8.5416669e-01 7.5558227e-01 0.0000000e+00 
1.1250000e+00 2.8349364e-01 0.0000000e+00 
7.5000000e-01 1.0000000e+00 0.0000000e+00 
1.2500000e+00 0.0000000e+00 0.0000000e+00 
1.1250000e+00 7.8349364e-01 0.0000000e+00 
1.2500000e+00 5.6698728e-01 0.0000000e+00 
1.3750000e+00 2.8349364e-01 0.0000000e+00 
1.0000000e+00 1.0000000e+00 0.0000000e+00 
1.5000000e+00 0.0000000e+00 0.0000000e+00 
1.3750000e+00 7.8349364e-01 0.0000000e+00 
1.2500000e+00 1.0000000e+00 0.0000000e+00 
1.5000000e+00 5.6698728e-01 0.0000000e+00 
1.6250000e+00 2.8349364e-01 0.0000000e+00 
1.7500000e+00 0.0000000e+00 0.0000000e+00 
1.5000000e+00 1.0000000e+00 0.0000000e+00 
1.6250000e+00 7.8349364e-01 0.0000000e+00 
1.7500000e+00 5.6698728e-01 0.0000000e+00 
1.8750000e+00 2.8349364e-01 0.0000000e+00 
2.0000000e+00 0.0000000e+00 0.0000000e+00 
1.7500000e+00 1.0000000e+00 0.0000000e+00 
1.8750000e+00 7.8349364e-01 0.0000000e+00 
2.0000000e+00 5.6698728e-01 0.0000000e+00 
2.1250000e+00 2.8349364e-01 0.0000000e+00 
2.0000000e+00 1.0000000e+00 0.0000000e+00 
2.2500000e+00 0.0000000e+00 0.0000000e+00 
2.1250000e+00 7.8349364e-01 0.0000000e+00 
2.2500000e+00 5.6698728e-01 0.0000000e+00 
2.3750000e+00 2.8349364e-01 0.0000000e+00 
2.2500000e+00 1.0000000e+00 0.0000000e+00 
2.5000000e+00 0.0000000e+00 0.0000000e+00 
2.3750000e+00 7.8349364e-01 0.0000000e+00 
2.5000000e+00 5.6698728e-01 0.0000000e+00 
2.6250000e+00 2.8349364e-01 0.0000000e+00 
2.5000000e+00 1.0000000e+00 0.0000000e+00 
2.6250000e+00 7.8349364e-01 0.0000000e+00 
2.7500000e+00 0.0000000e+00 0.0000000e+00 
2.7500000e+00 5.6698728e-01 0.0000000e+00 
2.8750000e+00 2.8349364e-01 0.0000000e+00 
2.7500000e+00 1.0000000e+00 0.0000000e+00 
2.8750000e+00 7.8349364e-01 0.0000000e+00 
3.0000000e+00 0.0000000e+00 0.0000000e+00 
3.0000000e+00 5.0000000e-01 0.0000000e+00 
3.1250000e+00 2.1650635e-01 0.0000000e+00 
3.0000000e+00 1.0000000e+00 0.0000000e+00 
3.1250000e+00 7.1650636e-01 0.0000000e+00 
3.2500000e+00 0.0000000e+00 0.0000000e+00 
3.2500000e+00 4.3301269e-01 0.0000000e+00 
3.3750000e+00 2.1650635e-01 0.0000000e+00 
3.2500000e+00 1.0000000e+00 0.0000000e+00 
3.3750000e+00 7.1650636e-01 0.0000000e+00 
3.5000000e+00 0.0000000e+00 0.0000000e+00 
3.5000000e+00 4.3301269e-01 0.0000000e+00 
3.6250000e+00 2.1650635e-01 0.0000000e+00 
3.5000000e+00 1.0000000e+00 0.0000000e+00 
3.6250000e+00 7.1650636e-01 0.0000000e+00 
3.7500000e+00 0.0000000e+00 0.0000000e+00 
3.7500000e+00 4.3301269e-01 0.0000000e+00 
3.8750000e+00 2.1650635e-01 0.0000000e+00 
3.7500000e+00 1.0000000e+00 0.0000000e+00 
3.8750000e+00 7.1650636e-01 0.0000000e+00 
4.0000000e+00 0.0000000e+00 0.0000000e+00 
4.0208335e+00 4.6092409e-01 0.0000000e+00 
4.0000000e+00 1.0000000e+00 0.0000000e+00 
4.1458335e+00 2.4441773e-01 0.0000000e+00 
4.1458335e+00 7.4441773e-01 0.0000000e+00 
4.2500000e+00 0.0000000e+00 0.0000000e+00 
4.2916665e+00 4.8883545e-01 0.0000000e+00 
4.2500000e+00 1.0000000e+00 0.0000000e+00 
4.3958335e+00 2.4441773e-01 0.0000000e+00 
4.3958335e+00 7.4441773e-01 0.0000000e+00 
4.5000000e+00 0.0000000e+00 0.0000000e+00 
4.5000000e+00 1.0000000e+00 0.0000000e+00 
4.6458335e+00 4.9441773e-01 0.0000000e+00 
4.7500000e+00 0.0000000e+00 0.0000000e+00 
4.7500000e+00 2.5000000e-01 0.0000000e+00 
4.7500000e+00 7.5000000e-01 0.0000000e+00 
4.7500000e+00 1.0000000e+00 0.0000000e+00 
5.0000000e+00 0.0000000e+00 0.0000000e+00 
5.0000000e+00 2.5000000e-01 0.0000000e+00 
5.0000000e+00 5.0000000e-01 0.0000000e+00 
5.0000000e+00 7.5000000e-01 0.0000000e+00 
5.0000000e+00 1.0000000e+00 0.0000000e+00 

CELLS 38 266
6 0 5 4 2 3 1
6 79 89 85 84 87 82
6 62 52 55 57 53 58
6 85 89 98 87 93 91
6 79 85 75 82 80 76
6 55 52 45 53 49 50
6 75 85 81 80 83 78
6 79 75 69 76 71 74
6 45 52 42 49 47 44
6 55 45 48 50 46 51
6 69 75 65 71 70 66
6 65 75 72 70 73 68
6 69 65 59 66 61 64
6 59 65 55 61 60 56
6 37 48 45 43 46 41
6 100 90 98 95 94 99
6 26 18 11 21 13 19
6 11 18 4 13 10 6
6 26 11 24 19 17 23
6 24 11 15 17 12 20
6 26 24 33 23 28 29
6 33 24 35 28 30 34
6 35 24 27 30 25 31
6 33 35 42 34 39 38
6 42 35 45 39 40 44
6 45 35 37 40 36 41
6 15 27 24 22 25 20
6 96 98 89 97 93 92
6 81 72 75 77 73 78
6 14 4 18 8 10 16
6 5 15 11 9 12 7
6 48 59 55 54 56 51
6 90 81 85 86 83 88
6 27 37 35 32 36 31
6 72 62 65 67 63 68
6 62 55 65 58 60 63
6 90 85 98 88 91 94
6 5 11 4 7 6 3

CELL_TYPES 38
22
22
22
22
22
22
22
22
22
22
22
22
22
22
22
22
22
22
22
22
22
22
22
22
22
22
22
22
22
22
22
22
22
22
22
22
22
22
POINT_DATA 101
FIELD FieldData 2
DISPLACEMENT 3 101  float
0.0000000e+00 0.0000000e+00 0.0000000e+00 
0.0000000e+00 0.0000000e+00 0.0000000e+00 
0.0000000e+00 0.0000000e+00 0.0000000e+00 
-2.5746172e-07 -1.2959788e-07 0.0000000e+00 
0.0000000e+00 0.0000000e+00 0.0000000e+00 
0.0000000e+00 0.0000000e+00 0.0000000e+00 
-7.3940066e-07 -1.6693623e-07 0.0000000e+00 
-6.2186552e-07 -9.9967295e-08 0.0000000e+00 
0.0000000e+00 0.0000000e+00 0.0000000e+00 
0.0000000e+00 0.0000000e+00 0.0000000e+00 
-7.4639877e-07 -5.9938287e-08 0.0000000e+00 
-1.5543596e-06 3.4099894e-08 0.0000000e+00 
-9.1476181e-07 7.2868261e-08 0.0000000e+00 
-1.9546328e-06 7.5050444e-08 0.0000000e+00 
0.0000000e+00 0.0000000e+00 0.0000000e+00 
0.0000000e+00 0.0000000e+00 0.0000000e+00 
-8.9698682e-07 1.3090617e-07 0.0000000e+00 
-2.3585453e-06 6.0856684e-07 0.0000000e+00 
-1.9362751e-06 2.3977947e-07 0.0000000e+00 
-2.9093833e-06 4.8062520e-07 0.0000000e+00 
-1.5311068e-06 5.9026638e-07 0.0000000e+00 
-3.2133066e-06 5.4874681e-07 0.0000000e+00 
0.0000000e+00 0.0000000e+00 0.0000000e+00 
-4.2067732e-06 1.6032494e-06 0.0000000e+00 
-3.3920776e-06 2.0388020e-06 0.0000000e+00 
-2.4238823e-06 1.4562096e-06 0.0000000e+00 
-4.7135227e-06 1.2838086e-06 0.0000000e+00 
0.0000000e+00 0.0000000e+00 0.0000000e+00 
-5.2934083e-06 3.5914222e-06 0.0000000e+00 
-6.4840128e-06 2.8131124e-06 0.0000000e+00 
-4.5178735e-06 4.2970464e-06 0.0000000e+00 
-4.2687566e-06 2.9398639e-06 0.0000000e+00 
0.0000000e+00 0.0000000e+00 0.0000000e+00 
-8.2518918e-06 5.4596758e-06 0.0000000e+00 
-6.1195487e-06 7.2530447e-06 0.0000000e+00 
-6.2554313e-06 8.4934318e-06 0.0000000e+00 
-8.3521390e-06 4.8551155e-06 0.0000000e+00 
0.0000000e+00 0.0000000e+00 0.0000000e+00 
-8.7826666e-06 1.0001228e-05 0.0000000e+00 
-6.1366995e-06 1.2636368e-05 0.0000000e+00 
-9.6561407e-06 1.3361076e-05 0.0000000e+00 
-1.6634342e-05 6.7190217e-06 0.0000000e+00 
-7.0550700e-06 1.5790160e-05 0.0000000e+00 
0.0000000e+00 0.0000000e+00 0.0000000e+00 
-4.4759227e-06 2.0000469e-05 0.0000000e+00 
-1.6002145e-05 1.9533556e-05 0.0000000e+00 
-3.3180742e-05 5.3080848e-06 0.0000000e+00 
4.2135930e-06 2.1943893e-05 0.0000000e+00 
0.0000000e+00 0.0000000e+00 0.0000000e+00 
2.2003366e-07 2.4788120e-05 0.0000000e+00 
-3.0810108e-05 1.6583741e-05 0.0000000e+00 
-6.2362269e-05 -5.5555302e-06 0.0000000e+00 
2.7139668e-05 2.1381346e-05 0.0000000e+00 
8.5998199e-06 1.8148487e-05 0.0000000e+00 
0.0000000e+00 0.0000000e+00 0.0000000e+00 
-5.7736615e-05 -8.3253763e-06 0.0000000e+00 
-1.0944611e-04 -4.0958697e-05 0.0000000e+00 
9.2875554e-05 -4.6281561e-06 0.0000000e+00 
1.8270763e-05 -2.9652692e-05 0.0000000e+00 
0.0000000e+00 0.0000000e+00 0.0000000e+00 
-1.3379866e-04 -9.1985450e-05 0.0000000e+00 
-1.5555279e-04 -1.1089568e-04 0.0000000e+00 
2.0064603e-04 -9.1721246e-05 0.0000000e+00 
-3.9743700e-05 -1.7981580e-04 0.0000000e+00 
0.0000000e+00 0.0000000e+00 0.0000000e+00 
-2.4679556e-04 -2.9392770e-04 0.0000000e+00 
-1.9376338e-04 -2.3313610e-04 0.0000000e+00 
3.8934551e-04 -3.4693297e-04 0.0000000e+00 
-9.8351651e-05 -5.3268351e-04 0.0000000e+00 
0.0000000e+00 0.0000000e+00 0.0000000e+00 
-2.7955015e-04 -6.1881612e-04 0.0000000e+00 
-1.6905159e-04 -3.8852272e-04 0.0000000e+00 
6.1295734e-04 -8.2662067e-04 0.0000000e+00 
-2.4767811e-04 -1.3724602e-03 0.0000000e+00 
0.0000000e+00 0.0000000e+00 0.0000000e+00 
-1.6179214e-04 -1.0011796e-03 0.0000000e+00 
-5.3759846e-05 -5.0924660e-04 0.0000000e+00 
4.3719483e-04 -2.7524575e-03 0.0000000e+00 
-1.8977729e-04 -2.3903903e-03 0.0000000e+00 
0.0000000e+00 0.0000000e+00 0.0000000e+00 
6.7964065e-05 -1.2494827e-03 0.0000000e+00 
-1.5827621e-04 -4.6482924e-03 0.0000000e+00 
1.2132117e-04 -5.3202914e-04 0.0000000e+00 
2.5523538e-04 -2.0913046e-03 0.0000000e+00 
0.0000000e+00 0.0000000e+00 0.0000000e+00 
2.0925677e-04 -8.4877439e-04 0.0000000e+00 
-6.0027745e-04 -1.6845510e-03 0.0000000e+00 
1.6521840e-04 -3.4995124e-04 0.0000000e+00 
1.0439531e-04 -8.9543744e-04 0.0000000e+00 
0.0000000e+00 0.0000000e+00 0.0000000e+00 
-4.8907090e-04 -6.5358856e-04 0.0000000e+00 
1.4243598e-04 -3.2478664e-04 0.0000000e+00 
0.0000000e+00 0.0000000e+00 0.0000000e+00 
9.8646080e-05 -1.2288951e-04 0.0000000e+00 
-2.0807936e-05 -2.7142689e-04 0.0000000e+00 
-2.2973429e-04 -4.6023208e-04 0.0000000e+00 
0.0000000e+00 0.0000000e+00 0.0000000e+00 
0.0000000e+00 0.0000000e+00 0.0000000e+00 
0.0000000e+00 0.0000000e+00 0.0000000e+00 
0.0000000e+00 0.0000000e+00 0.0000000e+00 
0.0000000e+00 0.0000000e+00 0.0000000e+00 
TOTAL_DISPLACEMENT 3 101  float
0.0000000e+00 0.0000000e+00 0.0000000e+00 
0.0000000e+00 0.0000000e+00 0.0000000e+00 
0.0000000e+00 0.0000000e+00 0.0000000e+00 
-2.5746172e-07 -1.2959788e-07 0.0000000e+00 
0.0000000e+00 0.0000000e+00 0.0000000e+00 
0.0000000e+00 0.0000000e+00 0.0000000e+00 
-7.3940066e-07 -1.6693623e-07 0.0000000e+00 
-6.2186552e-07 -9.9967295e-08 0.0000000e+00 
0.0000000e+00 0.0000000e+00 0.0000000e+00 
0.0000000e+00 0.0000000e+00 0.0000000e+00 
-7.4639877e-07 -5.9938287e-08 0.0000000e+00 
-1.5543596e-06 3.4099894e-08 0.0000000e+00 
-9.1476181e-07 7.2868261e-08 0.0000000e+00 
-1.9546328e-06 7.5050444e-08 0.0000000e+00 
0.0000000e+00 0.0000000e+00 0.0000000e+00 
0.0000000e+00 0.0000000e+00 0.0000000e+00 
-8.9698682e-07 1.3090617e-07 0.0000000e+00 
-2.3585453e-06 6.0856684e-07 0.0000000e+00 
-1.9362751e-06 2.3977947e-07 0.0000000e+00 
-2.9093833e-06 4.8062520e-07 0.0000000e+00 
-1.5311068e-06 5.9026638e-07 0.0000000e+00 
-3.2133066e-06 5.4874681e-07 0.0000000e+00 
0.0000000e+00 0.0000000e+00 0.0000000e+00 
-4.2067732e-06 1.6032494e-06 0.0000000e+00 
-3.3920776e-06 2.0388020e-06 0.0000000e+00 
-2.4238823e-06 1.4562096e-06 0.0000000e+00 
-4.7135227e-06 1.2838086e-06 0.0000000e+00 
0.0000000e+00 0.0000000e+00 0.0000000e+00 
-5.2934083e-06 3.5914222e-06 0.0000000e+00 
-6.4840128e-06 2.8131124e-06 0.0000000e+00 
-4.5178735e-06 4.2970464e-06 0.0000000e+00 
-4.2687566e-06 2.9398639e-06 0.0000000e+00 
0.0000000e+00 0.0000000e+00 0.0000000e+00 
-8.2518918e-06 5.4596758e-06 0.0000000e+00 
-6.1195487e-06 7.2530447e-06 0.0000000e+00 
-6.2554313e-06 8.4934318e-06 0.0000000e+00 
-8.3521390e-06 4.8551155e-06 0.0000000e+00 
0.0000000e+00 0.0000000e+00 0.0000000e+00 
-8.7826666e-06 1.0001228e-05 0.0000000e+00 
-6.1366995e-06 1.2636368e-05 0.0000000e+00 
-9.6561407e-06 1.3361076e-05 0.0000000e+00 
-1.6634342e-05 6.7190217e-06 0.0000000e+00 
-7.0550700e-06 1.5790160e-05 0.0000000e+00 
0.0000000e+00 0.0000000e+00 0.0000000e+00 
-4.4759227e-06 2.0000469e-05 0.0000000e+00 
-1.6002145e-05 1.9533556e-05 0.0000000e+00 
-3.3180742e-05 5.3080848e-06 0.0000000e+00 
4.2135930e-06 2.1943893e-05 0.0000000e+00 
0.0000000e+00 0.0000000e+00 0.0000000e+00 
2.2003366e-07 2.4788120e-05 0.0000000e+00 
-3.0810108e-05 1.6583741e-05 0.0000000e+00 
-6.2362269e-05 -5.5555302e-06 0.0000000e+00 
2.7139668e-05 2.1381346e-05 0.0000000e+00 
8.5998199e-06 1.8148487e-05 0.0000000e+00 
0.0000000e+00 0.0000000e+00 0.0000000e+00 
-5.7736615e-05 -8.3253763e-06 0.0000000e+00 
-1.0944611e-04 -4.0958697e-05 0.0000000e+00 
9.2875554e-05 -4.6281561e-06 0.0000000e+00 
1.8270763e-05 -2.9652692e-05 0.0000000e+00 
0.0000000e+00 0.0000000e+00 0.0000000e+00 
-1.3379866e-04 -9.1985450e-05 0.0000000e+00 
-1.5555279e-04 -1.1089568e-04 0.0000000e+00 
2.0064603e-04 -9.1721246e-05 0.0000000e+00 
-3.9743700e-05 -1.7981580e-04 0.0000000e+00 
0.0000000e+00 0.0000000e+00 0.0000000e+00 
-2.4679556e-04 -2.9392770e-04 0.0000000e+00 
-1.9376338e-04 -2.3313610e-04 0.0000000e+00 
3.8934551e-04 -3.4693297e-04 0.0000000e+00 
-9.8351651e-05 -5.3268351e-04 0.0000000e+00 
0.0000000e+00 0.0000000e+00 0.0000000e+00 
-2.7955015e-04 -6.1881612e-04 0.0000000e+00 
-1.6905159e-04 -3.8852272e-04 0.0000000e+00 
6.1295734e-04 -8.2662067e-04 0.0000000e+00 
-2.4767811e-04 -1.3724602e-03 0.0000000e+00 
0.0000000e+00 0.0000000e+00 0.0000000e+00 
-1.6179214e-04 -1.0011796e-03 0.0000000e+00 
-5.3759846e-05 -5.0924660e-04 0.0000000e+00 
4.3719483e-04 -2.7524575e-03 0.0000000e+00 
-1.8977729e-04 -2.3903903e-03 0.0000000e+00 
0.0000000e+00 0.0000000e+00 0.0000000e+00 
6.7964065e-05 -1.2494827e-03 0.0000000e+00 
-1.5827621e-04 -4.6482924e-03 0.0000000e+00 
1.2132117e-04 -5.3202914e-04 0.0000000e+00 
2.5523538e-04 -2.0913046e-03 0.0000000e+00 
0.0000000e+00 0.0000000e+00 0.0000000e+00 
2.0925677e-04 -8.4877439e-04 0.0000000e+00 
-6.0027745e-04 -1.6845510e-03 0.0000000e+00 
1.6521840e-04 -3.4995124e-04 0.0000000e+00 
1.0439531e-04 -8.9543744e-04 0.0000000e+00 
0.0000000e+00 0.0000000e+00 0.0000000e+00 
-4.8907090e-04 -6.5358856e-04 0.0000000e+00 
1.4243598e-04 -3.2478664e-04 0.0000000e+00 
0.0000000e+00 0.0000000e+00 0.0000000e+00 
9.8646080e-05 -1.2288951e-04 0.0000000e+00 
-2.0807936e-05 -2.7142689e-04 0.0000000e+00 
-2.2973429e-04 -4.6023208e-04 0.0000000e+00 
0.0000000e+00 0.0000000e+00 0.0000000e+00 
0.0000000e+00 0.0000000e+00 0.0000000e+00 
0.0000000e+00 0.0000000e+00 0.0000000e+00 
0.0000000e+00 0.0000000e+00 0.0000000e+00 
0.0000000e+00 0.0000000e+00 0.0000000e+00 
CELL_DATA 38
FIELD FieldData 0
